# vtk DataFile Version 5.1
vtk output
ASCII
DATASET POLYDATA
POINTS 17136 float
-88.2881 -102.222 424.5 -88.2881 -102.222 425 -88.2881 -102.222 427 
-88.2881 -102.222 427.5 -88.2881 -101.372 428 -88.2881 -101.372 428.5 
-88.2881 -100.522 429 -88.2881 -100.522 429.5 -88.2881 -99.6729 430 
-88.2881 -99.6729 430.5 -88.2881 -93.7256 415.5 -88.2881 -87.7783 406 
-87.4385 -103.071 417.5 -87.4385 -102.222 425.5 -87.4385 -102.222 426 
-87.4385 -102.222 426.5 -87.4385 -98.8232 431 -87.4385 -97.9736 431 
-87.4385 -97.124 431.5 -87.4385 -96.2744 432 -87.4385 -86.9287 406.5 
-87.4385 -86.9287 407 -87.4385 -86.0791 411 -87.4385 -86.0791 411.5 
-87.4385 -86.0791 412 -87.4385 -85.2295 412.5 -87.4385 -85.2295 413 
-86.5889 -95.4248 432.5 -86.5889 -95.4248 433 -86.5889 -95.4248 433.5 
-86.5889 -94.5752 434 -85.7393 -93.7256 434.5 -85.7393 -93.7256 435 
-85.7393 -92.876 435.5 -84.8896 -107.319 441 -84.8896 -107.319 441.5 
-84.8896 -107.319 443.5 -84.8896 -106.47 443 -84.8896 -106.47 444 
-84.8896 -105.62 444.5 -84.8896 -105.62 445 -84.8896 -105.62 445.5 
-84.8896 -101.372 440 -84.04 -109.019 443.5 -84.04 -108.169 443.5 
-84.04 -107.319 440 -84.04 -107.319 440.5 -84.04 -106.47 442 
-84.04 -106.47 442.5 -84.04 -104.771 446 -84.04 -104.771 446.5 
-84.04 -80.1318 411.5 -83.1904 -103.921 447 -83.1904 -103.071 447.5 
-83.1904 -103.071 448 -83.1904 -103.071 448.5 -82.3408 -135.356 404.5 
-82.3408 -134.507 405.5 -82.3408 -102.222 449 -82.3408 -102.222 449.5 
-82.3408 -89.4775 439 -82.3408 -89.4775 439.5 -81.4912 -108.169 461.5 
-81.4912 -107.319 461.5 -81.4912 -101.372 450 -81.4912 -101.372 450.5 
-81.4912 -82.6807 435 -81.4912 -82.6807 435.5 -81.4912 -82.6807 436 
-81.4912 -82.6807 436.5 -81.4912 -82.6807 437 -81.4912 -82.6807 437.5 
-81.4912 -82.6807 452 -80.6416 -109.019 462 -80.6416 -106.47 462 
-80.6416 -101.372 450 -80.6416 -100.522 451 -80.6416 -98.8232 448 
-80.6416 -95.4248 459 -80.6416 -89.4775 443 -80.6416 -89.4775 443.5 
-80.6416 -86.0791 416.5 -80.6416 -86.0791 417 -80.6416 -86.0791 417.5 
-80.6416 -84.3799 442.5 -80.6416 -84.3799 443 -80.6416 -82.6807 450.5 
-80.6416 -82.6807 451 -80.6416 -82.6807 451.5 -80.6416 -81.8311 452.5 
-79.792 -115.815 457.5 -79.792 -109.868 462.5 -79.792 -104.771 450 
-79.792 -103.921 450 -79.792 -101.372 464.5 -79.792 -100.522 449.5 
-79.792 -100.522 465.5 -79.792 -95.4248 459.5 -79.792 -95.4248 460 
-79.792 -95.4248 460.5 -79.792 -94.5752 457.5 -79.792 -94.5752 458 
-79.792 -94.5752 458.5 -79.792 -93.7256 456 -79.792 -93.7256 456.5 
-79.792 -93.7256 457 -79.792 -90.3271 444 -79.792 -90.3271 444.5 
-79.792 -90.3271 445 -79.792 -90.3271 445.5 -79.792 -90.3271 455 
-79.792 -90.3271 455.5 -79.792 -90.3271 456 -79.792 -84.3799 443.5 
-79.792 -84.3799 444 -79.792 -82.6807 450 -79.792 -81.8311 453 
-79.792 -81.8311 453.5 -78.9424 -115.815 457.5 -78.9424 -109.868 463 
-78.9424 -106.47 451 -78.9424 -106.47 451.5 -78.9424 -106.47 452 
-78.9424 -101.372 449 -78.9424 -100.522 465 -78.9424 -99.6729 466 
-78.9424 -98.8232 466.5 -78.9424 -97.9736 467.5 -78.9424 -97.124 468.5 
-78.9424 -84.3799 444.5 -78.9424 -83.5303 449.5 -78.9424 -82.6807 448 
-78.9424 -82.6807 448.5 -78.9424 -80.9814 454 -78.9424 -80.1318 454.5 
-78.9424 -80.1318 455 -78.0928 -117.515 458 -78.0928 -116.665 457.5 
-78.0928 -110.718 463.5 -78.0928 -109.868 455.5 -78.0928 -109.868 456 
-78.0928 -109.868 457 -78.0928 -109.019 455 -78.0928 -109.019 457 
-78.0928 -108.169 454.5 -78.0928 -107.319 452.5 -78.0928 -107.319 453 
-78.0928 -101.372 449 -78.0928 -97.9736 467 -78.0928 -97.124 468 
-78.0928 -97.124 469 -78.0928 -97.124 469.5 -78.0928 -97.124 470 
-78.0928 -97.124 470.5 -78.0928 -96.2744 471 -78.0928 -83.5303 445 
-78.0928 -83.5303 445.5 -78.0928 -83.5303 446.5 -78.0928 -83.5303 447 
-78.0928 -83.5303 447.5 -78.0928 -83.5303 449 -78.0928 -79.2822 455.5 
-78.0928 -79.2822 456.5 -78.0928 -78.4326 456 -78.0928 -78.4326 457 
-77.2432 -135.356 403.5 -77.2432 -118.364 458.5 -77.2432 -110.718 456.5 
-77.2432 -108.169 453.5 -77.2432 -108.169 454 -77.2432 -108.169 457 
-77.2432 -103.921 441 -77.2432 -100.522 449 -77.2432 -96.2744 471.5 
-77.2432 -95.4248 472 -77.2432 -95.4248 472.5 -77.2432 -94.5752 473 
-77.2432 -94.5752 477.5 -77.2432 -93.7256 472.5 -77.2432 -92.876 472.5 
-77.2432 -92.876 476.5 -77.2432 -92.0264 475.5 -77.2432 -84.3799 466 
-77.2432 -84.3799 466.5 -77.2432 -84.3799 467 -77.2432 -84.3799 467.5 
-77.2432 -84.3799 468 -77.2432 -84.3799 468.5 -77.2432 -84.3799 469 
-77.2432 -83.5303 446 -77.2432 -83.5303 463.5 -77.2432 -83.5303 464 
-77.2432 -83.5303 464.5 -77.2432 -83.5303 465 -77.2432 -83.5303 465.5 
-77.2432 -75.8838 446 -77.2432 -75.8838 446.5 -76.3936 -120.063 458.5 
-76.3936 -119.214 458.5 -76.3936 -100.522 449 -76.3936 -93.7256 477 
-76.3936 -92.0264 473 -76.3936 -92.0264 476 -76.3936 -91.1768 473 
-76.3936 -91.1768 475 -76.3936 -90.3271 472.5 -76.3936 -90.3271 473.5 
-76.3936 -90.3271 474 -76.3936 -90.3271 474.5 -76.3936 -86.9287 471 
-76.3936 -86.0791 470 -76.3936 -86.0791 470.5 -76.3936 -85.2295 469.5 
-76.3936 -82.6807 463 -76.3936 -81.8311 461.5 -76.3936 -81.8311 462 
-76.3936 -81.8311 462.5 -76.3936 -80.9814 461 -76.3936 -80.1318 460 
-76.3936 -80.1318 460.5 -76.3936 -75.8838 445 -76.3936 -75.8838 445.5 
-76.3936 -75.0342 443 -76.3936 -75.0342 443.5 -76.3936 -75.0342 444 
-76.3936 -75.0342 444.5 -75.5439 -143.003 403.5 -75.5439 -143.003 404 
-75.5439 -125.161 462 -75.5439 -124.312 462 -75.5439 -123.462 460.5 
-75.5439 -123.462 461 -75.5439 -122.612 459 -75.5439 -122.612 459.5 
-75.5439 -121.763 458.5 -75.5439 -120.913 458 -75.5439 -110.718 479.5 
-75.5439 -101.372 449 -75.5439 -98.8232 486 -75.5439 -92.876 476.5 
-75.5439 -89.4775 472.5 -75.5439 -88.6279 472.5 -75.5439 -87.7783 472 
-75.5439 -86.9287 471.5 -75.5439 -78.4326 453.5 -75.5439 -74.1846 442.5 
-75.5439 -73.335 442.5 -75.5439 -72.4854 442 -74.6943 -123.462 460 
-74.6943 -123.462 461.5 -74.6943 -123.462 462 -74.6943 -112.417 475 
-74.6943 -112.417 475.5 -74.6943 -112.417 476 -74.6943 -112.417 476.5 
-74.6943 -112.417 477 -74.6943 -112.417 477.5 -74.6943 -111.567 478.5 
-74.6943 -111.567 479 -74.6943 -110.718 480 -74.6943 -109.868 480.5 
-74.6943 -109.019 481 -74.6943 -108.169 481.5 -74.6943 -108.169 482 
-74.6943 -107.319 482.5 -74.6943 -106.47 483 -74.6943 -106.47 483.5 
-74.6943 -105.62 484 -74.6943 -101.372 448.5 -74.6943 -97.9736 486.5 
-74.6943 -97.9736 487 -74.6943 -94.5752 436.5 -74.6943 -78.4326 453.5 
-74.6943 -71.6357 442 -73.8447 -123.462 460 -73.8447 -122.612 462.5 
-73.8447 -122.612 463 -73.8447 -118.364 482.5 -73.8447 -111.567 478 
-73.8447 -102.222 448 -73.8447 -97.9736 487.5 -73.8447 -95.4248 438 
-73.8447 -70.7861 442.5 -73.8447 -69.9365 442 -72.9951 -128.56 470.5 
-72.9951 -128.56 471 -72.9951 -128.56 471.5 -72.9951 -124.312 460 
-72.9951 -122.612 463.5 -72.9951 -122.612 466 -72.9951 -122.612 466.5 
-72.9951 -122.612 467 -72.9951 -119.214 479.5 -72.9951 -119.214 480 
-72.9951 -119.214 480.5 -72.9951 -119.214 481 -72.9951 -119.214 481.5 
-72.9951 -119.214 482 -72.9951 -119.214 483 -72.9951 -119.214 483.5 
-72.9951 -119.214 484 -72.9951 -118.364 484.5 -72.9951 -117.515 485 
-72.9951 -117.515 485.5 -72.9951 -116.665 486 -72.9951 -116.665 486.5 
-72.9951 -116.665 487 -72.9951 -116.665 487.5 -72.9951 -115.815 488.5 
-72.9951 -102.222 448 -72.9951 -89.4775 488 -72.9951 -89.4775 488.5 
-72.9951 -89.4775 489 -72.9951 -89.4775 489.5 -72.9951 -89.4775 490 
-72.9951 -85.2295 481.5 -72.9951 -69.0869 442.5 -72.1455 -142.153 403.5 
-72.1455 -129.409 472 -72.1455 -129.409 472.5 -72.1455 -129.409 473 
-72.1455 -124.312 460 -72.1455 -122.612 464 -72.1455 -121.763 465.5 
-72.1455 -116.665 488 -72.1455 -115.815 489 -72.1455 -114.966 489.5 
-72.1455 -114.116 490 -72.1455 -113.267 490.5 -72.1455 -113.267 491 
-72.1455 -112.417 456.5 -72.1455 -112.417 491.5 -72.1455 -111.567 456.5 
-72.1455 -111.567 492 -72.1455 -111.567 492.5 -72.1455 -110.718 456 
-72.1455 -110.718 493.5 -72.1455 -109.868 454.5 -72.1455 -109.868 455 
-72.1455 -109.868 455.5 -72.1455 -109.019 453.5 -72.1455 -109.019 454 
-72.1455 -108.169 451.5 -72.1455 -108.169 452 -72.1455 -107.319 451 
-72.1455 -106.47 450.5 -72.1455 -103.921 448.5 -72.1455 -103.071 448 
-72.1455 -92.0264 493.5 -72.1455 -91.1768 492 -72.1455 -91.1768 492.5 
-72.1455 -91.1768 493 -72.1455 -90.3271 490.5 -72.1455 -90.3271 491 
-72.1455 -90.3271 491.5 -72.1455 -89.4775 487 -72.1455 -89.4775 487.5 
-72.1455 -88.6279 485.5 -72.1455 -88.6279 486 -72.1455 -88.6279 486.5 
-72.1455 -88.6279 490.5 -72.1455 -87.7783 484 -72.1455 -87.7783 484.5 
-72.1455 -87.7783 485 -72.1455 -87.7783 491 -72.1455 -86.9287 483 
-72.1455 -86.9287 483.5 -72.1455 -86.0791 482 -72.1455 -86.0791 482.5 
-72.1455 -68.2373 443 -72.1455 -68.2373 443.5 -71.2959 -123.462 460.5 
-71.2959 -121.763 464.5 -71.2959 -121.763 465 -71.2959 -115.815 458.5 
-71.2959 -114.116 457.5 -71.2959 -113.267 457 -71.2959 -110.718 493 
-71.2959 -108.169 452.5 -71.2959 -108.169 453 -71.2959 -106.47 449.5 
-71.2959 -106.47 450 -71.2959 -105.62 449 -71.2959 -104.771 448.5 
-71.2959 -103.071 447.5 -71.2959 -102.222 447 -71.2959 -101.372 446.5 
-71.2959 -92.876 494.5 -71.2959 -92.876 495 -71.2959 -92.0264 494 
-71.2959 -75.0342 457 -71.2959 -75.0342 457.5 -71.2959 -75.0342 468.5 
-71.2959 -75.0342 469 -71.2959 -70.7861 456.5 -71.2959 -70.7861 457 
-71.2959 -68.2373 432.5 -71.2959 -68.2373 433 -71.2959 -68.2373 433.5 
-71.2959 -68.2373 434 -71.2959 -67.3877 444 -70.4463 -133.657 475.5 
-70.4463 -126.011 481 -70.4463 -125.161 461.5 -70.4463 -125.161 462 
-70.4463 -124.312 461 -70.4463 -121.763 465 -70.4463 -114.966 458 
-70.4463 -100.522 446 -70.4463 -99.6729 445.5 -70.4463 -93.7256 496 
-70.4463 -93.7256 496.5 -70.4463 -93.7256 497 -70.4463 -92.876 495.5 
-70.4463 -74.1846 458 -70.4463 -73.335 462.5 -70.4463 -73.335 463 
-70.4463 -70.7861 457.5 -69.5967 -133.657 475.5 -69.5967 -126.011 481.5 
-69.5967 -125.161 462.5 -69.5967 -125.161 463 -69.5967 -123.462 466 
-69.5967 -122.612 465.5 -69.5967 -98.8232 445.5 -69.5967 -97.9736 445.5 
[...]
POINT_DATA 17136
FIELD FieldData 2
Radius 1 17136 double
0 0 0 0 0 0 0 0 0 
0 0 0 0 0 0 0 0.5 0 
0 0 0 0 0 0 0 0 0 
0 0.5 0.5 0 0 0 0 0 0 
0 0 0 0 0 0 0 0 0 
0 0 0 0 0 0 0 0 0 
0.5 0.5 0 0 0 0.5 0 0 0 
0 0.5 0 0 0 0 0 0 0 
0 0 0 0 0 0 0 0 0 
0 0 0 0 0 0.849609 0.5 0 0 
0 0 0 0 0 0 0 0 0 
0 0 0 0 0 0 0 0 0 
0 0 0 0 0 0 0 0 0 
0 0 0 0 0 0 0 0 0 
0 0 0 0 0 0 0 0 0 
0 0 0 0 0 0 0 0 0 
0 0 0 0 0 0 0 0.5 0.5 
0 0 0 0 0 0 0 0 0 
0 0 0 0 0 0 0 0 0 
0 0 0 0 0 0 0 0 0 
0 0 0 0.5 0.849609 0.849609 0.5 0 0 
0 0 0 0.5 0.849609 0.5 0 0 0 
0 0 0 0 0 0 0 0 0 
0 0 0 0 0 0 0 0 0 
0 0 0 0 0 0 0 0 0 
0 0 0 0 0 0.5 0 0.849609 0.849609 
0.5 0 0 0 0 0 0 0 0 
0 0 0 0 0 0 0 0.5 0 
0 0 0 0 0 0 0 0 0 
0 0 0 0 0 0 0 0 0 
0 0 0 0 0 0.5 0.5 0 0 
0 0 0 0 0 0 0 0 0 
0 0 0 0 0 0 0 0 0 
0 0 0 0 0 0 0 0 0 
0 0 0 0.5 0 0 0 0 0 
0 0 0 0 0 0 0 0 0 
0 0 0 0 0 0 0 0 0 
0 0 0 0 0 0 0 0 0 
0 0 0 0 0.5 0.985817 0 0 0 
0 0 0 0 0 0 0 0 0 
0 0 0 0 0 0 0 0 0 
0 0 0 0 0 0 0 0 0 
0 0 0 0 0.5 0.5 1.312188 0.985817 0.5 
0 0 0 0 0 0 0 0 0 
0 0 0 0 0 0 0 0 0 
0 0 0 0.849609 0.5 0 0 0 0 
0 0 0 0 0 0 0 0 0 
0 0.5 0.5 0 0 0 0 0 0 
0 0 0 0 0 0 0 0 0.5 
0.5 0 0 0 0 0 0 0 0 
0 0 0 0 0 0 0.5 0 0 
0 0 0 0 0 0 0 0 0 
0 0 0 0 0 0 0 0 0 
0 0 0.5 0.5 0.849609 0.5 0.849609 0.849609 0.849609 
0.5 0.5 0.849609 0.5 0 0 0 0 0.5 
0.5 0 0.5 0.849609 0.5 0 0 0.5 0 
0 0 0 0 0 0 0 0 0 
0 0.849609 0.5 0 0 0.5 0 0 0 
0 0 0.5 0.5 0.5 0.5 0.5 0.849609 0.849609 
0 0 0 0 0 0.5 0.849609 0 0.849609 
0.5 0 0.5 0.849609 0.5 0 0 0 0 
0 0 0 0 0 0 0 0 0.5 
0.5 0 0 0 0 0 0 0 0 
0.5 0 0 0 0 0 0 0 0 
0 0 0 0 0.849609 0.5 0.849609 0.5 0.5 
0 0 0 0 0.5 0 0 0 0 
0 0 0 0 0 0 0 0 0 
0 0 0.5 0.849609 0.5 0 0.5 0.5 0.5 
0.849609 0 0 0.849609 0.849609 0.985817 0.849609 0.849609 0.5 
0.5 0.5 0.5 0 0 0.5 0 0 0 
0 0 0 0 0 0 0 0 0.849609 
0.5 0.985817 0.985817 0 0.985817 0.5 0.985817 0.5 0.985817 
0 0.5 0 0 0.5 0.985817 0.5 0.849609 0 
0 0 0 0.5 0.5 0 0 0 0 
0 0 0 0 0.5 0 0 0 0 
0 0 0 0.5 0 0 0 0.985817 0.985817 
0.849609 0 0 0 0.849609 0.849609 0 0 0 
0 0 0 0 0 0 0 0 0 
0 0 0.5 0.5 0 0 0 0 0 
0 0.849609 0 0 0 0 0.5 0 0 
0 0.5 0 0 0 0.5 0 0 0 
0 0 0 0 0.849609 0.849609 0 0 0 
0 0 0 0 0 0 0 0 0 
0 0 0 0 0 0 0.849609 0.5 0.849609 
0 0 0 0 0 0.849609 0 0 0 
0 0 0.5 0.5 0 0 0 0 0 
0 0.849609 0 0 0 0 0.849609 0.849609 0.5 
0.849609 0.849609 0.849609 0.849609 0 0.5 0 0.5 0 
0 0 0 0 0 0 0 0 0 
0 0 0 0.5 0 0.985817 0 0 0 
0 0.5 0 0.5 0 0 0 0 0.985817 
0.985817 0.849609 0.849609 0.5 0.849609 0.849609 0.985817 0.849609 0.849609 
0.849609 0.5 0.849609 0.849609 0.849609 0.849609 0.849609 0.849609 0.5 
0 0 0 0 0 0 0 0 0 
0 0 0 0 0 0.985817 0.5 0 0.5 
0 0 0.5 0.849609 0.5 0 0 0 0 
0.5 0.985817 0.849609 0 0 0 0 0 0 
0 0 0 0.985817 0 0 0.5 0.5 0.5 
0.849609 0.5 0.5 0 0 0 0 0.849609 0.5 
0 0 0.985817 0 0 0 0 0 0 
0 0 0 0 0 0 0 0 0 
0 0.5 0 0.5 0.849609 0.5 0.849609 0.5 0 
0.5 0 0.5 0 0 0 0 0 0.5 
0 0.985817 0.985817 0 0 0 0 0 0 
0 0 0 0 0 0.5 0 0 0 
0.5 0.849609 0.849609 0.985817 0.849609 0 0 0.5 0 
0.5 0 0 0 0.5 0 0 0 0.849609 
0.985817 0.5 0.849609 0.5 0 0 0 0 0 
0 0.5 0 0.5 0.849609 0.849609 0.849609 0.5 0.5 
0 0 0 0 0.5 0 0.849609 0.849609 0 
0 0 0.5 0.5 0 0 0 0 0 
0 0 0.5 0.849609 0.5 0 0.5 0.849609 0.5 
0.849609 0.849609 0 0 0 0 0 0 0 
0 0.5 0.5 0.5 0.5 0.5 0.5 0 0.5 
0.5 0.5 0.849609 0.849609 0.985817 0 0 0 0.5 
0.849609 0.849609 0 0 0 0.5 0 0 0.5 
0 0 0 0 0.985817 0.5 0 0 0 
0 0 0 0 0.5 0 0 0 0 
0 0.5 0.849609 0.985817 0.849609 0.849609 0 0 0.849609 
0.849609 0.849609 0.849609 0.849609 0.985817 0.849609 0.985817 1.201529 0.985817 
0.849609 0.849609 0.849609 0.849609 0 0 0 0 0 
0.5 0.5 0.849609 0.849609 0 0 0 0 0 
0 0.5 0.849609 0.985817 0 0 0 0 0 
0 0 0.5 0 0.5 0.5 0 0 0 
0 0 0 0 0.849609 0.5 0.5 0 0 
0 0.5 0.985817 0 0.985817 0.849609 0.849609 0.5 0.5 
0.985817 0.5 0.849609 0.849609 0.849609 0.5 0.849609 0.849609 0.5 
0.849609 0.849609 0.849609 0 0 0 0 0.849609 0.849609 
0 0 0 0 0 0.5 0.849609 0.849609 0.5 
0 0 0 0 0.849609 0.849609 0.849609 0 0.849609 
0 0 0.849609 0.5 0 0 0 0 0.5 
0 0.5 0 0 0 0 0 0.5 0 
0 0.5 0.5 0 0 0.5 0.5 0.5 0.5 
0.5 1.563225 0.849609 1 0.985817 0 0 0.985817 0.5 
0 0 0 0.5 0 0 0 0 0 
0 0 0 0 0 0 0 0 0 
0 0.5 0.5 0 0 0 0 0 0 
0 0 0 0.5 0.849609 0.849609 0.849609 0 0 
0 0 0 0.849609 0 0 0.5 0 0 
0 0 0 0 0 0 0 0 0 
0 0 0 0 0 0 0 0 0 
0 0 0 0 0 0.5 0 0 0.5 
0 0 0 0 0 0 0 0 0.5 
0.5 0.5 0 0 0.5 0 0 0.985817 1.201529 
0.5 0.849609 0.849609 0 0 0 0 0 0 
0 0 0 0 0 0 1.5 0 0 
0 0.5 1 0 0 0 0 0 0 
0 0.849609 0.849609 0 0 0 0 0.5 0 
0.5 0.985817 0.849609 0 0.985817 0.985817 0.849609 0.849609 0.849609 
0.849609 0.849609 0 0 0 0 0 0 0 
0 0 0 0 0 0 0 0 0 
0.849609 0 0.5 0 0 0 0 0 0 
0 0 0 0 0 0.5 0.5 0 0 
0 0 0.5 0 0 0 0 0 0 
0 0 0 0 0 0 0 0 0 
0.5 0 0.5 0 0 0 0 0.985817 0.849609 
0.849609 0.849609 0 0 0 0 1.5 0 0 
0 0 0 0.5 0 0 0 0 0 
0 0 0 0 0 0.5 0.849609 0.985817 0.849609 
0 0 0 0 0.5 0 0 0 0 
0 0 0.5 0 0 0.5 0 0 0.5 
0 0 0 0 0.5 0 0.5 0 0 
0 0 0 0 0 0 0.5 0 0.849609 
0 0 0 0 0 0 0 0 0 
0 0.5 0 0.5 0 0 0 0 0 
0 1.312188 0 0 0.5 0 0 0 0 
0 0.5 0 0 0 0.849609 0.849609 0.5 0 
0.985817 0.985817 0.849609 0 0 0 0.849609 0 0 
0 0 0 0 0 0 0 0 0 
0 0 0 0.5 0 0.5 0.5 0 0 
0 0.5 0.5 0 0 0 0 0 0 
0 0 0 0 0 0 0 0 0 
0.5 0 0 0 0 0.5 0.849609 0 0 
0 0.5 0.849609 0 0 0.5 0 0 1.312188 
0.985817 0.5 0 0 0 0.849609 0.5 0 0 
0 0 0 0 0.5 0.5 0.849609 0.5 0 
0.985817 0.849609 0.5 0 0.5 0 0 0 0 
0 0 0 0 0 0 0 0 0.5 
0.5 0 0 0 0 0 0 0 0 
0 0 0 0.849609 0 0 0.5 0.5 0.985817 
0 0 0 0.5 0 0 0.5 0 0 
0 0.985817 0 0 0 0.5 0 0.5 0 
0.849609 0.849609 0 0 0 0.5 0 0 0 
0 0 0 0 0 0 0 0 0 
0 0 0 0 0.5 0 0.5 0.5 0 
0 0 0 0 0 0 0 0 0 
0 0 0 0 0 0 0 0 0 
0 0.5 0.5 0 0 0.5 0.5 0 0.5 
0 0 0 0 0 0 0 0.5 0 
0 1.312188 0 0 0 0 0 0.5 0 
0 0 0.985817 0 0 0.5 0 0 0 
0 0 0 0.5 0 0 0.5 0.5 0 
0 0.5 0 0 0 0 0 0 0 
0 0 0 0 0 0 0 0 0 
0 0 0 0 0 0 0 0 0 
0 0 0 0 0 0.5 0 0 0 
0.5 0 0 0.5 0 0.5 0.5 0 0 
0.5 0 0 0 0 0 0 0 0 
0 0.5 0 0 0 0 0 0.5 0 
0 1.301412 0 0 0 0 0 0.985817 0 
0 0 0 0 0 0 0 0 0.849609 
0.5 0 0 0 0 0 0 0 0 
0 0 0.5 0 0 0.5 0 0 0 
0 0 0 0 0 0 0 0 0 
0 0 0 0 0 0 0 0 0 
0 0 0 0 0 0 0.849609 0 0 
0.5 0 0.5 0 0 0 0 0 0 
0 0.5 0 0.5 0 0.985817 1.201529 0 0.5 
0.5 0 0 0.985817 0 0 0.5 0.849609 0.849609 
0.849609 0.849609 0 0 0 0 0 0 0 
0 0.5 0 0.5 0 0 0.5 0 0 
0 0 0 0 0 0 0 0 0 
0 0 0 0 0 0 0 0 0 
0 0 0 0 0 0 0 0 0 
0.985817 0 0 0 0.849609 0 0 0 0 
0 0 0 0 0 0.5 0 0 0.849609 
0 0 0.5 0 0 0 0.5 0 0 
0 0 0 0 0 0.849609 0 0 0 
0 0.5 0.849609 0.849609 0.5 0.849609 0 0 0 
0 0 0 0 0 0 0 0 0 
0 0 0 0.5 0 0 0 0 0.849609 
0 0 0 0 0 0 0 0 0 
0 0 0 0 0 0 0 0.5 0.5 
0.5 0 0 0 0.5 0.5 0 0 0 
0 0 0 0 0.985817 0 0 0 0.5 
0.849609 0 0 0 0 0.5 0 0 0 
0.985817 0.5 0 0.5 0 0 0 0.985817 0.5 
0.5 0 0 0 0 0.985817 0.849609 0.5 0 
0 0 0 0 0 0 0 0 0.5 
0 0 0 0 0 0 0 0 0 
0 0 0 0 0 0.5 0.849609 0.5 0.849609 
0 0 0 0 0 0 0 0.5 0 
0 0.5 0 0 0 0 0 0.5 0 
0 0 0 0 0 0 0.5 0 0 
0 0 0 0 0 0 0 0 0 
0 0 0 0 0 0 0 0 0 
0 0 0 0 0 0 0 0 0 
0 0.5 0 0 0 0.5 0 0.5 0.5 
0 0 0 0.5 0 0 0 0.849609 0.849609 
0.849609 0 0 0 0 0 0 0 0.985817 
0.849609 0 0.5 0.5 0.5 0.849609 0.5 0 0 
0.5 0.5 0 0 0 0 0 0 0 
0 0 0 0 0 0 0 0.5 0 
0 0.5 0 0 0.5 0 0 0 0 
0 0 0 0 0.5 0 0 0 0 
0 0 0 0 0 0 0.5 0 0 
0 0 0.5 0 0.5 0.849609 0 0 0 
0 0.849609 0 0.849609 0 0.849609 0.849609 0 0 
0 0 0 0 0 0 0 0 0 
0 0 0 0 0 0 0.849609 0 0 
0 0 0 0 0 0 0.985817 0.849609 0 
0.849609 0.5 0 0.5 0.849609 0.849609 0.849609 0.849609 0.5 
0 0 0 0 0 0 0 0 0 
0 0 0.5 0 0 0 0 0 0 
0 0 0 0.5 0 0 0 0 0 
0 0 0 0 0 0 0 0.5 0 
0 0.5 0 0.849609 0 0.5 0 0 0.5 
0 0 0 0 0 0 0 0 0.849609 
0.849609 0 0 0.985817 0.5 0.849609 0.849609 0 0.5 
0 0 0 0 0 0 0 0 0 
0.5 0 0 0 0 0 0 0 0 
0 0 0 0 0.5 0 0 0 0 
0 0 0.5 0.5 0 0 0 0 0 
0 0 0.5 0.5 0.849609 0 0 0 0 
0 0 0 0.5 0 0 0 0 0 
0 0 0 0 0 0.849609 0 0 0 
0 0 0 0.985817 0 0.5 0.5 0.5 0 
0 0 0 0 0 0 0 0.5 0 
0 0 0 0 0 0.849609 0 0 0 
0 0 0 0 0 0 0 0 0 
0 0.5 0.5 0 0.849609 0 0.5 0.5 0.5 
0 0 0 0 0 0 0.849609 0 0 
0 0.985817 0.849609 0.5 0.849609 0 0 0 0 
0 0.5 0 0 0 0 0 0 0.849609 
0.5 0 0 0 0 0 0 0 0 
0 0 0 0.5 0 0.849609 0 0.985817 0 
0.849609 0.849609 0 0 0 0 0 0 1.312188 
0.5 0.849609 0.849609 0 0 0 0 0 0.5 
0 0 0 0 0 0 0.5 0 0 
0 0 0 0 0 0 0 0 0 
0.5 0 0.849609 0 0 0.5 0.5 0 0.5 
0.849609 0.985817 0.5 0.849609 0.849609 0 0 0 0 
0 0 0 0.5 0.985817 0.849609 0.5 0 0 
0 0 0 0.5 0 0 0 0 0 
0 0 0 0.5 0.849609 0.5 0 0 0 
0 0 0 0 0 0 0 0 0 
0 0 0 0 0.849609 0.5 0 0.5 0 
0 0 0.5 0.849609 0.849609 0 0 0.985817 0 
0 0 0 0 0 0 0 0 0.985817 
0.849609 0 0.5 0 0 0 0 0 0 
0 0 0 0 0 0 0.5 0 0 
0 0.849609 0.849609 0.849609 0.849609 0.849609 0.849609 0.5 0 
0 0 0 0 0 0.5 0 0 0 
0 0 0 0 0 0 0 0.5 0.5 
0 0 0 0 0 0.5 0.849609 0.849609 0.5 
0 0 0 0 0 0 0 0 0 
0 0 0 0 0.5 0 0 0 0 
0 0 0 0.849609 0 0 0.5 0 0 
0.985817 0 0 0 0 0 0 0 0 
1.301412 0.5 0.5 0 0 0 0 0 0.5 
0.5 0 0 0 0 0 0.5 0.5 0 
0 0 0 0.849609 0.5 0 0.5 0.849609 0.5 
0 0 0.5 0 0 0.5 0 0 0 
0 0 0 0 0 0 0 0 0 
0 0 0 0 0 0 0 0 0 
0 0 0 0 0 0 0 0.5 0.5 
0.5 0 0 0 0.5 0.849609 0 0 0 
0.985817 0.985817 0.849609 0 0 0 0 0 0 
0 0 0 1.301412 0.5 0.5 0.849609 0.849609 0.849609 
0.5 0.849609 0.849609 0 0 0 0 0 0 
0 0 0.5 0.849609 0.5 0 0 0 0 
0 0 0 0.5 0 0 0 0 0 
0.5 0 0 0 0 0 0 0 0 
0 0 0 0 0 0 0 0 0 
0 0 0 0 0 0 0.5 0.849609 0.5 
0 0 0 0 0 0.849609 0.5 0 0 
0 0 0 0 0.849609 0 0 0 0 
0 0 0.985817 0.5 0.849609 0 0 0 0 
0 0.5 0 0 0 0.849609 0 0.849609 0.5 
0.5 0 0 0 0.5 0 0 0.5 0 
0.5 0 0 0 0 0 0 0 0 
0 0 0 0 0 0 0 0 0 
0 0 0 0 0 0 0 0.5 0 
0.5 0 0 0 0.5 0 0 0 0 
0 0 0.849609 0 0 0 0 0 0 
0 0 0.985817 0 0 0.849609 0.849609 0 0 
0 0 0 0 0 0 0 0.5 0.849609 
0.5 0 0.5 0 0 0 0 0 0.5 
0.5 0 0 0 0 0 0 0 0 
0.5 0 0 0 0 0 0 0 0 
0 0 0 0 0 0 0 0 0 
0 0 0 0 0 0.849609 0.849609 0 0 
0 0 0 0 0 0 0.5 0 0 
0 0 0 0 0 0.5 0 0 0 
0 0 0 0.985817 0 0.849609 0.849609 0 0 
0 0 0 0 0 0 0 0 0.5 
0 0 0 0 0 0 0 0 0 
0 0.5 0 0 0 0 0 0 0 
0 0 0 0 0 0 0 0 0 
0 0 0 0 0 0.5 0 0 0 
0 0 0 0 0 0 0 0 0 
0 0 0.849609 0.5 0.5 0 0 0 0 
0.849609 0 0 0 0 0 0 0.985817 0 
0.849609 0.849609 0 0 0 0 0 0 0 
0 0.5 0 0 0 0 0 0.5 0 
0 0 0 0 0 0 0 0 0 
0 0 0 0 0 0 0 0 0.5 
0 0 0 0 0 0 0 0 0 
0 0 0 0.849609 0.5 0.5 0 0 0 
0.5 0 0 0 0.849609 0 0 0 0 
0 0 0.985817 0 0 0 0 0 0.849609 
0.849609 0 0 0 0 0 0 0 0 
0 0 0 0.5 0 0 0 0 0 
0 0 0 0 0 0 0 0.5 0.5 
0.5 0 0.5 0 0 0 0 0 0 
0 0 0 0 0.849609 0.5 0 0.5 0 
0 0 0 0 0 0 0.5 0.849609 0.5 
0 0 0 0 0.849609 0 0 0 0.985817 
0.985817 0 0 0 0 0 0 0 0 
0 0.849609 0.849609 0 0 0 0 0 0 
0 0 0 0 0 0 0.5 0 0 
0 0 0 0 0 0 0.5 0 0 
0 0.5 0 0 0 0 0 0 0 
0 0 0 0 0 0.5 0 0 0 
0 0 0.5 0.849609 0.5 0 0 0 0 
0 0 0 0 0 0 0 0 0 
0 0 0 0 0 0 0 0.849609 0.849609 
0.5 0 0 0.5 0.5 0 0 0.985817 0 
0 0 0 0 0 0 0 0 0 
0.849609 0 0 0 0.5 0.849609 0.849609 0 0 
0.5 0 0.849609 0 0.5 0 0.5 0 0 
0 0 0 0 0 0.5 0 0 0 
0 0 0 0 0 0 0 0 0 
0.849609 0.5 0.5 0 0 0 0 0.849609 0.5 
0.5 0 0 0 0 0 0 0 0 
0 0 0 0 0 0 0.5 0.849609 0.849609 
0 0 0.5 0.985817 0 0 0 0 0 
0 0.5 0 0 0 0 0 0 0.5 
0 0 0.5 0.5 0.5 0 0 0 0 
0 0 0 0 0 0 0.849609 0.849609 0.5 
0 0.5 0 0 0 0 0 0 0.5 
0 0 0 0 0 0 0 0 0 
0 0 0 0 0.5 0.5 0 0 0 
0 0.5 0.5 0.849609 0.5 0.5 0 0 0 
0 0 0 0 0 0 0 0 0.849609 
0.5 0 0 0.985817 0 0 0 0.5 0 
0 0.5 0 0 0 0 0 0 0 
0 0.5 0.5 0.5 0 0 0 0 0 
0 0 0 0.985817 0.985817 0 0.5 0.849609 0 
0.5 0 0 0 0 0 0 0 0 
0 0 0 0 0 0 0 0 0 
0 0 0 0 0.5 0 0 0 0 
0 0 0 0 0 0 0 0 0 
0 0 0 0 0 0 0 0 0 
0 0 0.5 0.849609 0.5 0.5 0 0 0 
0 0 0 0 0 0 0 0 0.849609 
0.849609 0.5 0 0 0 0.985817 0 0 0.5 
0 0 0 0 0 0 0 0 0.5 
0.5 0 0 0 0.849609 0.5 0 0 1 
0.985817 0 0 0 0 0 0.5 0 0.849609 
0 0 0 0 0 0 0 0 0 
0.849609 0.5 0.5 0 0.5 0.5 0.5 0.849609 0.5 
0.5 0.849609 0.5 0 0 0 0 0 0.849609 
0.849609 0 0.985817 0 0 0.5 0 0 0 
0 0 0 0 0 0 0 0.5 0.849609 
0 1.5 0 0 0.849609 0 0 0 0 
0 0 0 0 0 0 0 0 0 
0.5 0 0 0.5 0.849609 0.5 0 0.849609 0.5 
0 0 0.5 0.5 0 0 0 0 0 
0 0 0 0.849609 0.5 0 0 0.985817 0.5 
0 0 0 0 0 0 0 0 0 
0 0 0.849609 0.849609 0.849609 0.849609 0.849609 0.5 0.849609 
0.849609 0.849609 0.849609 0.5 0 1.563225 1.312188 0 0 
0 0 0 0.849609 0.849609 0 0 0 0 
0 0 0 0 0 0 0 0.5 0.5 
0 0 0.5 0 0 0 0 0 0 
0 0.5 0 0 0 0.5 0 0 0 
0 0 0.985817 0 0.849609 0.5 0 0 0 
0 0 0 0 0 0 0 0 0 
0 0 0 0.5 0.849609 0 0 0 0 
0.849609 0 0 0 0 0 0.5 0.849609 0.985817 
0 0 1.301412 0 0 0.5 0.985817 0 0 
0 1.312188 0 0 0 0 0 0 0 
0 0 0.5 0 0 0 0 0 0.5 
0.5 0 0 0 0 0.849609 0.849609 0.849609 0.5 
0 0 0 0 0 0 0 0 0 
0.849609 0.5 0.5 0.5 0 0 0 0 0 
0 0 0 0 0 0 0 0 0 
0 0 0 0 0 0 0 0 0 
0 0 0 0.985817 0 0.849609 0 0 0 
0 0 0 0 0.5 0 0 0 0 
0 0 0 0 0 0.5 0.849609 0 0.849609 
0 0 0.5 0.849609 0.849609 0.849609 0.849609 0.849609 0.5 
0 0 0 0 0 0 0.5 0.849609 0.849609 
0.849609 0.849609 0.849609 0.849609 0.849609 0.5 0 0 0.5 
0 0 0 0 0 0 0.5 0.849609 0 
0 0 0 0 0 0 0 0 0 
0 0 0 0 0 0.5 0.849609 0.849609 0 
0 0 0 0 0 0.849609 0 0 0.5 
0.849609 0 0 0 0 0 0 0 0 
0 0 0.5 0 0 0 0 0 0 
0 0 0 0 0 0 0 0 0.985817 
0 0 0 0 0.849609 0 0 0 0 
0.5 0 0 0 0 0 0 0 0 
0.5 0 0 0 0 0 0 0 0 
0 0 0 0 0 0 0 0 0 
0 0.5 0 0 0 0 0 0 0 
0.849609 0.849609 0.5 0 0 0.5 0.5 0 0.5 
0 0 0 0 0 0 0 0 0 
0 0 0 0 0 0.985817 0 0 0 
0 0 0 0 0 0 0 0 0 
0.5 0.5 0 0 0 0.5 0 0 0.5 
0.849609 0.849609 0.849609 0.849609 0 0 0 0.5 0 
0 0 0 0 0 0 0 0 0 
0.5 0.5 0 0 0.5 0.5 0 0 0.5 
0 0 0 0 0 0 0 0 0 
0.985817 0 0 0 0 0 0 0 0 
0 0 0 0.5 0.5 0.5 0 0 0 
0 0 0 0 0 0 0.849609 0.5 0.849609 
0.5 0 0 0 0.5 0 0 0 0 
0 0 0 0 0 0 0 0 0 
0.5 0 0 0 0.5 0.5 0 0 0 
0.849609 0 0 0 0 0 0 0.5 0 
0 0.5 0.849609 0.5 0 0 0 0 0 
0 0 0 0 0 0 0.985817 0 0 
0 0 0 0 0 0 0 0.5 0 
0 0 0 0 0 0 0 0 0 
0 0 0 0 0 0 0.849609 0 0 
0 0 0 0 0 0 0.849609 0.849609 0.5 
0 0 0 0 0 0 0 0 0 
0 0 0 0 0 0 0 0 0 
0 0 0.5 0 0 0 0 0 0.849609 
0.5 0 0 0 0 0 0 0 0 
0 0 0 0 0 0 0 0.985817 0 
0.5 0 0 0 0 0 0 0.5 0 
0 0 0.5 0 0 0 0 0 0 
0 0 0 0 0 0 0 0 0 
0.849609 0.985817 0 0.5 0 0 0 0 0.5 
0 0.5 0 0 0 0.5 0 0 0 
0.849609 0 0.5 0.849609 0 0 0 0 0 
0 0 0 0 0 0.5 0 0 0.985817 
0 0 0 0 0 0 0 0 0 
0 0 0 0.5 0.849609 0.5 0 0.5 0 
0.5 0 0 0 0 0 0 0 0 
0 0 0 0 0 0 0 0 0 
0 0 0 0 0 0 0 0 0 
0 0 0 0 0 0 0 0 0 
0 0.849609 0.985817 0.849609 0.849609 0.849609 0.5 0.849609 0.849609 
0.5 0.849609 0 0.5 0 0 0 0 0 
0 0 0 0 0 0 0 0 0.5 
0 0.849609 0.849609 0 0 0 0 0 0 
0 0 0 0 0.849609 0.5 0 0 0.985817 
0 0 0 0 0 0 0 0.5 0 
0 0 0 0 0 0 0 0 0 
0 0 0 0 0 0 0 0.849609 0.5 
0.849609 0.849609 0.849609 0.5 0 0 0 0 0 
0 0 0 0 0 0 0 0 0 
0 0 0 0 0 0 0 0 0 
0 0 0 0 0 0 0 0 0 
0 0 0.5 0 0.5 0.849609 0 0 0 
0 0 0 0 0.5 0 0.985817 0 0 
0 0 0 0 0 0 0 0 0 
0 0.5 0.849609 0.5 0.849609 0 0 0 0 
0 0 0 0 0.5 0.849609 0.849609 0.849609 0.849609 
0.5 0 0 0 0 0 0 0 0.5 
0 0 0 0 0 0.5 0 0.849609 0.849609 
0 0 0 0.5 0 0 0 0 0.5 
0.5 0.985817 0 0 0.5 0 0 0.5 0.5 
0 0 0 0 0 0.5 0 0 0 
0 0 0.5 0.849609 0.5 0 0.5 0.5 0 
0.5 1.301412 1.201529 0.985817 0.849609 1.563225 1.699219 1.312188 0.5 
0 0 0 0 0 0 0 0 0 
0 0 0 0 0 0 0 0 0 
0 0 0 0 0.849609 0 0.849609 0.849609 0 
0 0.5 0 0 0 0 0.5 0.985817 0 
0 0 0 0 0 0 0 0 0 
0 0 0 0 0 0 0 0 0 
0 0 0 0 0.849609 0.5 0 1.312188 0.985817 
0 0 0 0 0 0 0 0 0 
0 0 0 0 0 0 0 0 0 
0 0 0 0 0 0.5 0 0.849609 0 
0.849609 0.5 0 0 0 0 0 0 0 
0.5 0.5 0.985817 0 0 0.5 0 0 0 
0 0 0 0 0 0 0 0 0.5 
0 0 0 0.5 0 0.5 0 0 0 
0.5 0.5 0 0 0 0 0 0 0 
0 0 0 0 0 0 0 0 0 
0 0.5 0 0 0.849609 0.5 0 0.5 0.5 
0 0.5 0 0 0 0 0 0 0 
0 0 0 0 0 0.5 0.849609 0.849609 0.5 
1.201529 0 0 0 0 0 0 0 0 
0 0 0 0 0 0 0 0 0 
0 0 0 0 0 0 0 0 0 
0 0 0 0 0 0 0 0.5 0 
0.849609 0.5 0 0 0.849609 0.849609 0.5 0.5 0 
0.5 0 0 0 0 0 0 0 0 
0 0 0 0 0 0 0 0 0 
0 0.5 0.849609 0.849609 0.5 1.201529 0 0 0 
0 0 0 0.5 0 0 0 0 0 
0 0 0.5 0 0 0 0 0 0 
0 0 0 0 0 0 0 0 0 
0.5 0.5 0 0 0.849609 0.985817 0.5 0 0 
0 0 0 0 0 0 0 0 0.5 
0 0 0 0 0.5 0.849609 0.849609 0.849609 0.849609 
0.849609 0.849609 0.5 0.985817 0 0 0 0 0 
0 0 0 0 0 0 0 0 0 
0 0 0.5 0 0 0 0 0 0 
0 0 0 0 0 0 0 0 0 
0 0 0 0 0 0 0 0.5 0 
0 0 0 0 0 0 0 0 0 
0 0 0 0 0 0.5 0.5 0 0 
0.5 0.849609 0 0.5 0 0.5 0 0.5 0.849609 
0.5 0 0 0.5 0 0 0.5 0.849609 0.5 
0.5 0 0 0.985817 0 0 0 0 0 
0 0.985817 0 0 0.5 0.985817 0 0 0 
0 0.5 0 0 0.5 0.5 0 0 0 
0 0 0 0 0 0 0 0 0 
0 0 0 0 0 0 0 0 0 
0 0 0 0 0 0 0 0 0.5 
0 0.849609 0.5 0 0 0 0 0 0.5 
0 0 0 1 0 0.5 0.5 0 0.985817 
0 0.5 0 0 0 0 0 0 0 
0.849609 0.5 0 0 0 0 0 0 0 
0 0 0 0 0 0 0 0 0 
0 0 0 0 0 0 0 0 0 
0 0 0.849609 0.5 0 0 0 0 0 
0 0.5 0 0.5 0.849609 0 0 0 0 
0 0 0 0 0 0.5 0 0 0.849609 
0.849609 0.5 0 0.5 0 0 0 0 0 
0.5 0 0 0.5 0 0 0 0 0 
0 0 0 0 0 0 0 0 0 
0 0 0 0 0 0 0 0 0 
0 0 0 0.5 0 0 0 0 0.849609 
0 0.5 0.849609 0 0 0 0 0 0 
0 0 0 0 0.5 0 0 0.5 0 
0 0 0.5 0 0 0 0 0 0.5 
0 0.5 0 0 0 0 0.5 0 0 
0 0 0 0 0 0 0 0 0.5 
0.849609 0.849609 0.849609 0.849609 0.5 0 0 0 0 
0.5 0.849609 0 0.5 0 0 0 0 0 
0 0 0 1 0 0 0 0 0 
0 0 0 0 0 0 0 0 0 
0.5 0.5 0 0 0 0 0.5 0 0 
0 0.5 0.5 0 0 0 0 0.5 0 
0 0.5 0 0 0 0 0 0 0 
0 0 0 0 0 0 0 0 0 
1 0 0 0 0 0 0 0.5 0.5 
0 0 0 0 0 0 0 0 0 
0 0.5 0.5 0 0.5 0 0 0 0 
0 0 0 0 0.849609 0.849609 0.849609 0.849609 0.849609 
0.5 0.5 0.5 0.5 0 0 0 0 0 
0.5 0 0 0 0.5 0 0.5 0 0 
0 0 0.5 0 0 0 0 0 0 
0 0 0 0 0 0 0 0 0 
1 0 0 0 0 0 0 0 0 
0 0 0 0 0 0 0 0 0.5 
0.849609 0.849609 0.849609 0.5 0 0 0 0 0 
0 0 0 0 0.5 0 0 0 0 
0 0 0 0 0 0 0 0.5 0 
0 0 0 0 0 0.5 0 0 0 
0 0 0 0.5 0 0 0 0 0 
0.5 0 0 0 0 0 0 0 0 
0.5 0 0 0 0 0 0 0 0 
0 0 0 0.5 0.985817 1.312188 0 0 0 
0 0 0 0.849609 0.849609 0 0 0 0.5 
0 0 0 0 0 0 0 0 0 
0 0 0 0 0 0 0 0 0 
0 0 0 0 0 0 0 0 0 
0 0 0 0 0 0 0 0 0 
0 0.849609 0.849609 0.985817 0.849609 0 0 0 0 
0.5 0 0 0 0 0 0.5 0.5 0 
0 0.5 0 0 0 0 0 0 0 
0 0 0 0.5 0 1 0 0 0 
0 0 0 0.849609 0.849609 0.849609 0.849609 0 0 
0 0 0 0 0 0 0 0 0 
0 0 0 0 0 0 0 0 0 
0 0 0 0 0 0 0 0 0 
0 0 0 0 0 0 0 0 0 
0 0 1.301412 0.985817 0.849609 0.849609 0 0 0 
0 0 0 0 0 0 0 0 0 
0 0 0.5 0 0 0 0 0 0.5 
0.985817 0.985817 0.849609 0.849609 0.849609 0.849609 0.849609 0.849609 0.849609 
0.849609 0.5 0.5 0.849609 0.849609 0.849609 0.5 0 0 
0.5 0.5 0 0.5 0.5 0.5 0.5 0.849609 0.5 
0.849609 0 0.5 0.5 0.985817 0.849609 0 0 0 
0.849609 0.849609 0.849609 0.849609 0.849609 0.849609 0.849609 0.849609 0.849609 
0.849609 0.849609 0.849609 0.5 0.849609 0.5 0 0 0 
0 0 0 0 0.5 0 1.312188 0 0 
0.849609 0.5 0 0 0 0 0 0.5 0 
0 0 0 0 0 0 0 0 0.5 
0 0 0 0 0 0 0 0 0 
0 0 0 0 0 0 0 0 0 
0 0.849609 0.5 0 0 0 0.849609 0 0 
0 0.5 0 0 0.5 0 0 0 0.5 
0 0.849609 0.5 0.5 0.5 0.849609 0.5 0.849609 0.849609 
0 0.849609 0.985817 0.849609 1.201529 0.5 0.849609 0 0 
0 0 0 0 0 0 0 0 0 
0 0 0 0 0 0.5 0.849609 0.849609 0.849609 
0.849609 0.849609 0.849609 0.849609 0.849609 0.849609 0.5 0 1.312188 
0.985817 0 0 0 0.5 0 0 0 0.849609 
0.849609 0.5 0 0 0 0 0 0 0 
0 0 0 0 0 0 0 0 0 
0.5 0.5 0 0 0 0 0 0.849609 0.849609 
0 0.849609 0.5 0 0 0 0 0 0 
0 0.5 0 0 0 0 0 0 0.849609 
0.849609 0.849609 0 0.5 0.985817 0.849609 0 0.849609 0.849609 
0.849609 0.5 0 0 0 0 0 0 0 
0 0 0.5 0.5 0 0 0 0 0 
0 0 0 0 0 0.5 0.849609 0.5 0.5 
0.849609 0.849609 0.849609 0.985817 1.201529 1.201529 0.5 0 0 
1.5 0.849609 0 0 0 0 0 0 0 
0 0 0 0.5 0 0 0 0 0.849609 
0.849609 0 0 0 0 0 0 0.5 0 
0 0 0 0 0.5 0 0 0.849609 0.849609 
0.985817 0.849609 0 0.849609 0.5 0.849609 0.849609 0.5 0 
0 0 0 0 0 0 0 0 0 
0 0 0 0 0 0 0 0 0 
0 0 0 0 0 0 0 0 0 
0 0 0 0 0 0 0 0.849609 0.5 
0 0 0 0 1.312188 0.5 0.5 0 0.5 
0 0 0 0 0 0 0 0 0 
0 0 0 1.201529 1.201529 0.849609 0.849609 0 0 
0.5 0 0 0 0 0 0.5 0 0 
0 0 0.849609 0.5 0 0.849609 0 0.849609 0.849609 
0.5 0 0 0 0 0 0 0 0 
0 0 0 0 0 0 0 0 0 
0 0 0 0 0 0 0 0 0.5 
0 0 0 0 0 0 0.5 0 1.312188 
0.849609 0 0 0 0 0 0.849609 0 0 
0 0 0 0 0 0 0 0.5 0.849609 
0 0.5 0.849609 0.849609 0.985817 0 0 0 0.5 
0 0 0 0.5 0 0 0 0 0.5 
0 0.849609 0.5 0 0.5 0.5 0.849609 0.849609 0.5 
0 0.5 0.5 0.5 0.5 0.849609 0 0 0 
0 0 0 0 0 0 0 0 0 
0 0 0 0 0 0 0 0.5 0 
0 0 0 0.5 0.849609 0.5 0 0 0 
0 0.5 0.849609 0.5 0 0 0 0 0 
0 0 0 0 0 0 0 0.5 0.5 
0.849609 0.5 0 0 0.5 1.312188 0.5 0 0.849609 
0 0.849609 0.849609 0 0 0 0 0 0 
0 0 0 0 0.5 0.849609 0.5 0 0 
0 0.849609 0 0 0 0 0 0 0 
0 0 0 0 0 0 0.849609 0.849609 0.5 
0.849609 0.849609 0.849609 1.301412 1.563225 0 0.849609 0.5 0 
0 0 0 0 0 0.5 1.563225 0 0.5 
0 0 1.201529 0 0.985817 0 0.849609 0 0.5 
0 0 0 0.5 0.849609 0.5 0 0 0.849609 
0.849609 0 0.5 0 0 0 0 0 0 
0 0 0 0 0 0 0 0 0 
0 0 0 0 0 0 0 0 0 
0 0 0 0 0 0.5 0 0.5 0.849609 
0.5 0 0 0 0 0 0 0 0 
0 0 0 0 0.5 0.5 0 0 0 
1.301412 1.563225 0.5 0.849609 0.849609 0.5 0.849609 0.5 0 
0 0 0 0.5 0 0 0 0 0 
0 0 0 0 0 0 0 0 0 
0 0 0 0 0 0 0 0 0 
0 0 0 0 0 0 0.849609 0.849609 0.5 