# vtk DataFile Version 5.1
vtk output
ASCII
DATASET POLYDATA
POINTS 10424 float
-109.702 -79.8604 435.1 -108.884 -83.1338 437.6 -108.884 -83.1338 438.1 
-108.884 -82.3154 436.6 -108.884 -82.3154 437.1 -108.884 -81.4971 436.1 
-108.884 -80.6787 435.6 -108.884 -79.042 435.1 -108.884 -78.2236 434.6 
-108.884 -77.4053 434.1 -108.884 -76.5869 433.6 -108.884 -73.3135 456.1 
-108.065 -92.9541 445.6 -108.065 -92.9541 449.1 -108.065 -92.1357 446.1 
-108.065 -92.1357 446.6 -108.065 -92.1357 447.1 -108.065 -92.1357 448.6 
-108.065 -91.3174 447.6 -108.065 -91.3174 448.1 -108.065 -84.7705 439.1 
-108.065 -84.7705 439.6 -108.065 -83.9521 438.6 -108.065 -75.7686 433.1 
-108.065 -74.9502 433.1 -108.065 -74.1318 432.6 -108.065 -73.3135 432.1 
-108.065 -73.3135 455.1 -108.065 -73.3135 455.6 -108.065 -73.3135 456.6 
-108.065 -73.3135 457.1 -108.065 -72.4951 432.1 -108.065 -71.6768 431.6 
-108.065 -70.8584 431.6 -108.065 -70.04 431.1 -107.247 -93.7725 450.1 
-107.247 -93.7725 450.6 -107.247 -93.7725 451.1 -107.247 -92.9541 445.1 
-107.247 -92.9541 449.6 -107.247 -84.7705 440.1 -107.247 -83.9521 443.6 
-107.247 -83.9521 444.1 -107.247 -83.9521 444.6 -107.247 -83.9521 445.1 
-107.247 -83.9521 445.6 -107.247 -73.3135 457.6 -107.247 -73.3135 458.6 
-107.247 -72.4951 459.1 -107.247 -69.2217 431.1 -106.429 -94.5908 451.6 
-106.429 -94.5908 452.1 -106.429 -94.5908 452.6 -106.429 -94.5908 453.1 
-106.429 -94.5908 453.6 -106.429 -94.5908 454.1 -106.429 -94.5908 456.1 
-106.429 -93.7725 444.6 -106.429 -92.9541 444.1 -106.429 -92.1357 443.6 
-106.429 -90.499 443.1 -106.429 -89.6807 442.6 -106.429 -85.5889 440.6 
-106.429 -85.5889 441.1 -106.429 -84.7705 443.1 -106.429 -84.7705 446.1 
-106.429 -84.7705 446.6 -106.429 -83.9521 447.1 -106.429 -83.9521 447.6 
-106.429 -83.1338 449.6 -106.429 -74.1318 458.1 -106.429 -68.4033 431.1 
-106.429 -67.585 430.1 -106.429 -67.585 430.6 -106.429 -67.585 431.6 
-105.61 -95.4092 456.6 -105.61 -94.5908 454.6 -105.61 -94.5908 455.1 
-105.61 -94.5908 455.6 -105.61 -93.7725 444.6 -105.61 -91.3174 443.6 
-105.61 -88.8623 442.6 -105.61 -88.0439 442.1 -105.61 -87.2256 441.6 
-105.61 -86.4072 441.6 -105.61 -86.4072 442.1 -105.61 -85.5889 442.6 
-105.61 -84.7705 448.1 -105.61 -83.9521 448.6 -105.61 -83.9521 449.1 
-105.61 -83.1338 450.1 -105.61 -79.042 463.6 -105.61 -79.042 464.1 
-105.61 -75.7686 456.6 -105.61 -74.9502 457.1 -105.61 -74.1318 457.6 
-105.61 -74.1318 458.6 -105.61 -66.7666 429.6 -105.61 -66.7666 432.1 
-105.61 -65.9482 429.1 -105.61 -65.9482 432.1 -105.61 -65.1299 428.6 
-105.61 -64.3115 428.6 -104.792 -95.4092 457.1 -104.792 -94.5908 445.1 
-104.792 -84.7705 442.6 -104.792 -79.042 464.6 -104.792 -79.042 466.6 
-104.792 -74.1318 459.1 -104.792 -65.9482 455.6 -104.792 -65.9482 456.1 
-104.792 -65.1299 432.1 -104.792 -64.3115 432.6 -104.792 -63.4932 428.1 
-104.792 -62.6748 427.1 -104.792 -62.6748 427.6 -103.974 -95.4092 445.6 
-103.974 -95.4092 457.6 -103.974 -84.7705 442.6 -103.974 -79.042 465.1 
-103.974 -79.042 465.6 -103.974 -79.042 466.1 -103.974 -79.042 467.1 
-103.974 -79.042 467.6 -103.974 -79.042 470.1 -103.974 -73.3135 459.6 
-103.974 -73.3135 460.1 -103.974 -73.3135 460.6 -103.974 -65.9482 457.1 
-103.974 -65.9482 457.6 -103.974 -65.9482 458.1 -103.974 -65.1299 456.6 
-103.974 -63.4932 433.1 -103.974 -61.8564 426.6 -103.974 -61.0381 426.1 
-103.974 -59.4014 425.1 -103.974 -58.583 424.6 -103.974 -57.7646 424.6 
-103.974 -56.9463 424.6 -103.155 -97.8643 446.6 -103.155 -97.0459 446.1 
-103.155 -96.2275 446.1 -103.155 -95.4092 457.1 -103.155 -84.7705 442.6 
-103.155 -79.8604 468.1 -103.155 -79.8604 468.6 -103.155 -79.8604 469.6 
-103.155 -76.5869 481.6 -103.155 -76.5869 482.1 -103.155 -72.4951 461.1 
-103.155 -65.1299 458.6 -103.155 -65.1299 459.6 -103.155 -65.1299 460.1 
-103.155 -65.1299 460.6 -103.155 -65.1299 461.1 -103.155 -65.1299 462.1 
-103.155 -65.1299 462.6 -103.155 -65.1299 463.1 -103.155 -62.6748 433.6 
-103.155 -62.6748 434.1 -103.155 -62.6748 434.6 -103.155 -61.8564 435.1 
-103.155 -60.2197 426.1 -103.155 -59.4014 425.6 -103.155 -56.1279 424.1 
-103.155 -55.3096 423.6 -102.337 -97.0459 455.1 -102.337 -97.0459 455.6 
-102.337 -96.2275 456.1 -102.337 -96.2275 456.6 -102.337 -84.7705 443.1 
-102.337 -79.8604 469.1 -102.337 -75.7686 482.6 -102.337 -75.7686 483.1 
-102.337 -74.9502 483.6 -102.337 -71.6768 461.6 -102.337 -65.9482 461.6 
-102.337 -64.3115 459.1 -102.337 -63.4932 459.1 -102.337 -61.0381 435.1 
-102.337 -60.2197 435.6 -102.337 -54.4912 423.1 -102.337 -53.6729 423.1 
-101.519 -83.9521 443.6 -101.519 -80.6787 469.6 -101.519 -74.9502 484.6 
-101.519 -74.1318 484.1 -101.519 -73.3135 484.6 -101.519 -71.6768 461.6 
-101.519 -66.7666 461.6 -101.519 -62.6748 459.1 -101.519 -59.4014 436.1 
-101.519 -59.4014 436.6 -101.519 -58.583 437.1 -101.519 -58.583 437.6 
-101.519 -52.8545 422.6 -100.7 -83.9521 443.1 -100.7 -81.4971 453.1 
-100.7 -81.4971 453.6 -100.7 -81.4971 470.1 -100.7 -72.4951 484.6 
-100.7 -71.6768 461.6 -100.7 -71.6768 485.1 -100.7 -70.8584 485.6 
-100.7 -67.585 461.6 -100.7 -61.8564 459.1 -100.7 -57.7646 438.1 
-100.7 -57.7646 438.6 -100.7 -56.9463 439.1 -100.7 -56.1279 439.6 
-100.7 -52.0361 422.6 -99.8818 -83.9521 443.1 -99.8818 -81.4971 470.1 
-99.8818 -80.6787 454.1 -99.8818 -80.6787 454.6 -99.8818 -71.6768 461.6 
-99.8818 -70.8584 486.1 -99.8818 -70.04 486.6 -99.8818 -68.4033 461.6 
-99.8818 -61.8564 459.1 -99.8818 -59.4014 469.6 -99.8818 -55.3096 440.1 
-99.8818 -55.3096 440.6 -99.8818 -51.2178 422.1 -99.0635 -106.866 468.6 
-99.0635 -106.866 469.1 -99.0635 -106.866 470.1 -99.0635 -106.866 470.6 
-99.0635 -106.866 471.1 -99.0635 -106.866 471.6 -99.0635 -83.1338 443.6 
-99.0635 -83.1338 469.6 -99.0635 -82.3154 470.1 -99.0635 -82.3154 470.6 
-99.0635 -82.3154 471.1 -99.0635 -79.8604 455.1 -99.0635 -79.8604 455.6 
-99.0635 -70.8584 461.6 -99.0635 -70.04 461.1 -99.0635 -69.2217 461.1 
-99.0635 -69.2217 487.1 -99.0635 -69.2217 487.6 -99.0635 -61.0381 458.6 
-99.0635 -58.583 469.6 -99.0635 -54.4912 441.1 -99.0635 -53.6729 441.6 
-99.0635 -53.6729 442.1 -99.0635 -50.3994 422.1 -99.0635 -49.5811 422.1 
-98.2451 -108.503 469.6 -98.2451 -107.685 469.6 -98.2451 -83.1338 443.6 
-98.2451 -82.3154 471.6 -98.2451 -79.042 456.1 -98.2451 -70.8584 460.1 
-98.2451 -70.8584 460.6 -98.2451 -68.4033 488.1 -98.2451 -68.4033 488.6 
-98.2451 -61.0381 458.1 -98.2451 -57.7646 470.1 -98.2451 -52.8545 442.6 
-98.2451 -52.8545 443.6 -98.2451 -48.7627 422.1 -97.4268 -109.321 470.1 
-97.4268 -82.3154 444.1 -97.4268 -81.4971 472.1 -97.4268 -81.4971 472.6 
-97.4268 -81.4971 473.1 -97.4268 -78.2236 456.6 -97.4268 -77.4053 457.1 
-97.4268 -71.6768 459.6 -97.4268 -67.585 489.1 -97.4268 -67.585 489.6 
-97.4268 -67.585 490.1 -97.4268 -60.2197 458.1 -97.4268 -59.4014 457.6 
-97.4268 -56.9463 470.1 -97.4268 -56.1279 470.6 -97.4268 -54.4912 453.1 
-97.4268 -54.4912 453.6 -97.4268 -52.0361 427.1 -97.4268 -52.0361 427.6 
-97.4268 -52.0361 443.1 -97.4268 -52.0361 444.1 -97.4268 -51.2178 428.6 
-97.4268 -47.9443 422.6 -96.6084 -110.14 470.6 -96.6084 -110.14 471.1 
-96.6084 -110.14 471.6 -96.6084 -81.4971 444.6 -96.6084 -81.4971 473.6 
-96.6084 -81.4971 474.1 -96.6084 -76.5869 457.6 -96.6084 -72.4951 459.1 
-96.6084 -66.7666 490.6 -96.6084 -60.2197 457.1 -96.6084 -59.4014 456.6 
-96.6084 -55.3096 453.1 -96.6084 -55.3096 453.6 -96.6084 -55.3096 470.6 
-96.6084 -54.4912 452.6 -96.6084 -54.4912 454.1 -96.6084 -53.6729 453.1 
-96.6084 -53.6729 453.6 -96.6084 -52.0361 444.6 -96.6084 -52.0361 445.1 
-96.6084 -52.0361 445.6 -96.6084 -51.2178 428.1 -96.6084 -51.2178 429.1 
-96.6084 -51.2178 429.6 -95.79 -110.958 472.1 -95.79 -110.958 472.6 
-95.79 -80.6787 445.1 -95.79 -80.6787 474.6 -95.79 -80.6787 475.1 
-95.79 -75.7686 458.1 -95.79 -74.9502 458.1 -95.79 -73.3135 458.6 
-95.79 -66.7666 491.1 -95.79 -59.4014 456.1 -95.79 -58.583 455.6 
-95.79 -57.7646 455.1 -95.79 -56.9463 454.1 -95.79 -56.9463 454.6 
-95.79 -56.1279 453.1 -95.79 -55.3096 452.6 -95.79 -55.3096 453.6 
-95.79 -54.4912 452.6 -95.79 -54.4912 453.6 -95.79 -54.4912 471.1 
-95.79 -53.6729 453.1 -95.79 -51.2178 446.1 -95.79 -51.2178 446.6 
-95.79 -50.3994 430.1 -94.9717 -111.776 473.1 -94.9717 -80.6787 445.6 
-94.9717 -79.8604 475.6 -94.9717 -79.8604 476.1 -94.9717 -74.1318 458.1 
-94.9717 -73.3135 457.6 -94.9717 -65.9482 491.6 -94.9717 -65.9482 492.1 
-94.9717 -56.1279 453.1 -94.9717 -56.1279 453.6 -94.9717 -55.3096 452.6 
-94.9717 -55.3096 453.6 -94.9717 -54.4912 453.1 -94.9717 -54.4912 471.6 
-94.9717 -54.4912 472.1 -94.9717 -54.4912 473.1 -94.9717 -53.6729 473.6 
-94.9717 -53.6729 474.1 -94.9717 -50.3994 434.6 -94.9717 -50.3994 447.1 
-94.9717 -49.5811 430.6 -94.9717 -49.5811 431.6 -94.9717 -49.5811 432.6 
-94.9717 -49.5811 433.1 -94.9717 -49.5811 447.1 -94.9717 -47.126 430.1 
-94.9717 -46.3076 429.6 -94.1533 -112.595 473.6 -94.1533 -90.499 458.6 
-94.1533 -80.6787 446.1 -94.1533 -80.6787 448.1 -94.1533 -79.8604 447.6 
-94.1533 -79.8604 476.6 -94.1533 -73.3135 457.1 -94.1533 -65.1299 492.6 
-94.1533 -64.3115 493.1 -94.1533 -63.4932 493.6 -94.1533 -56.9463 482.1 
-94.1533 -55.3096 453.1 -94.1533 -53.6729 472.6 -94.1533 -53.6729 474.6 
-94.1533 -53.6729 475.1 -94.1533 -52.8545 476.1 -94.1533 -51.2178 435.1 
-94.1533 -50.3994 433.6 -94.1533 -50.3994 434.1 -94.1533 -49.5811 432.1 
-94.1533 -48.7627 431.1 -94.1533 -48.7627 447.6 -94.1533 -47.9443 430.6 
-94.1533 -46.3076 429.1 -94.1533 -45.4893 428.6 -93.335 -113.413 474.1 
-93.335 -113.413 474.6 -93.335 -113.413 477.1 -93.335 -113.413 477.6 
-93.335 -113.413 478.1 -93.335 -113.413 478.6 -93.335 -113.413 479.1 
-93.335 -90.499 459.1 -93.335 -82.3154 448.1 -93.335 -81.4971 448.1 
-93.335 -79.8604 446.6 -93.335 -79.8604 513.1 -93.335 -79.042 447.1 
-93.335 -79.042 477.1 -93.335 -79.042 513.6 -93.335 -78.2236 447.6 
-93.335 -78.2236 514.1 -93.335 -74.1318 455.6 -93.335 -74.1318 456.1 
-93.335 -74.1318 456.6 -93.335 -72.4951 457.6 -93.335 -71.6768 457.6 
-93.335 -62.6748 494.1 -93.335 -62.6748 494.6 -93.335 -56.9463 481.6 
-93.335 -56.1279 452.6 -93.335 -52.8545 475.6 -93.335 -52.8545 478.1 
[...]
POINT_DATA 10424
FIELD FieldData 2
Radius 1 10424 double
0.5 0.959016 0.5 0.959016 0.959016 0.959016 0.818359 0.959016 0.959016 
0.959016 0.959016 0.617145 0.617145 0.617145 0.617145 0.617145 0.617145 0.617145 
0.617145 0.617145 0.959016 0.5 0.959016 0.818359 0.818359 0.818359 0.818359 
0.617145 0.617145 0.617145 0.617145 0.818359 0.959016 0.818359 0.818359 0.617145 
0.617145 0.617145 0.617145 0.617145 0.5 0.5 0.617145 0.617145 0.617145 
0.617145 0.617145 0.617145 0.617145 1.157335 0.617145 0.617145 0.617145 0.617145 
0.617145 0.617145 0.617145 0.818359 0.959016 0.959016 0.5 0.5 0.5 
0.5 0.617145 0.617145 0.617145 0.617145 0.617145 0.617145 0.617145 1.157335 
0.818359 0.818359 0.818359 0.617145 0.617145 0.617145 0.617145 0.959016 0.818359 
0.5 0.5 0.617145 0.617145 0.5 0.818359 0.617145 0.617145 0.617145 
0.617145 0.617145 0.617145 0.617145 0.617145 0.617145 0.5 0.5 0.818359 
0.617145 0.818359 0.617145 0.617145 0.617145 0.959016 0.5 0.617145 0.617145 
0.617145 0.617145 0.617145 0.818359 0.818359 0.617145 0.617145 0.617145 0.5 
0.617145 0.5 0.617145 0.617145 0.617145 0.617145 0.617145 0.617145 0.617145 
0.5 0.617145 0.617145 0.5 0.818359 0.617145 0.5 0.617145 0.617145 
0.617145 0.617145 0.617145 0.617145 0.617145 0.617145 0.5 0.617145 0.617145 
0.617145 0.5 0.617145 0.617145 0.617145 0.617145 0.5 0.818359 0.818359 
0.818359 0.818359 0.818359 0.818359 0.5 0.5 0.5 0.617145 0.617145 
0.617145 0.617145 0.617145 0.617145 0.617145 0.617145 0.617145 0.617145 0.617145 
0.617145 0.617145 0.617145 0.617145 0.617145 0.818359 0.617145 0.617145 0.617145 
0.617145 0.617145 0.617145 0.617145 0.617145 0.617145 0.617145 0.617145 0.617145 
0.617145 0.617145 0.617145 0.5 0.617145 0.617145 0.617145 0.617145 0.5 
0.818359 0.617145 0.617145 0.617145 0.617145 0.617145 0.617145 0.617145 0.617145 
0.5 0.617145 0.617145 0.617145 0.617145 0.5 0.5 0.818359 0.617145 
0.617145 0.617145 0.617145 0.617145 0.617145 0.617145 0.617145 0.617145 0.617145 
0.617145 0.617145 0.617145 0.617145 0.617145 0.5 0.5 0.818359 0.818359 
0.818359 0.5 0.5 0.617145 0.617145 0.617145 0.617145 0.617145 0.617145 
0.617145 0.617145 0.617145 0.617145 0.617145 0.617145 0.617145 0.617145 0.5 
0.959016 0.5 0.5 0.818359 0.617145 0.617145 0.617145 0.617145 0.617145 
0.617145 0.617145 0.617145 0.5 0.818359 0.818359 0.5 0.617145 0.617145 
0.5 0.617145 0.617145 0.617145 0.818359 0.818359 0.617145 0.617145 0.617145 
0.5 0.617145 0.617145 0.617145 0.617145 0.617145 0.617145 0.617145 0.617145 
0.617145 0.5 0.818359 0.818359 0.5 0.5 0.617145 0.818359 0.5 
0.617145 0.617145 0.617145 0.617145 0.5 0.818359 0.5 0.617145 0.5 
0.5 0.617145 0.617145 0.617145 0.617145 0.617145 0.818359 0.5 0.818359 
0.818359 0.818359 0.818359 0.617145 0.818359 0.5 0.5 0.617145 0.5 
0.617145 0.617145 0.617145 0.617145 0.617145 0.617145 0.617145 0.5 0.818359 
0.617145 0.617145 0.959016 0.5 0.5 0.959016 0.959016 0.617145 0.5 
0.617145 0.617145 0.617145 0.617145 0.617145 0.617145 0.617145 0.617145 0.617145 
0.617145 0.617145 0.5 0.617145 0.5 0.818359 0.5 0.617145 0.5 
0.5 0.617145 0.617145 0.959016 0.5 0.818359 0.818359 0.5 0.617145 
0.5 0.5 0.617145 0.5 0.617145 0.617145 0.617145 0.617145 0.617145 
0.5 0.617145 0.5 0.5 0.617145 0.617145 0.5 0.5 0.617145 
0.617145 0.617145 0.617145 0.617145 0.617145 0.617145 0.617145 0.617145 0.5 
1.260724 0.617145 0.959016 0.818359 0.617145 0.5 0.617145 0.617145 0.617145 
0.5 0.5 0.5 0.5 0.5 0.617145 0.5 0.617145 0.617145 
0.617145 0.617145 0.617145 0.617145 0.617145 0.617145 0.617145 0.617145 0.617145 
0.5 0.5 0.617145 0.617145 0.617145 0.617145 0.617145 0.617145 0.617145 
0.617145 0.617145 0.617145 0.617145 0.617145 0.617145 0.5 0.617145 0.617145 
0.5 0.617145 0.617145 0.617145 0.617145 0.617145 0.5 0.5 0.5 
0.5 0.818359 0.617145 0.617145 0.617145 0.617145 0.5 0.818359 0.617145 
0.617145 0.617145 0.5 0.617145 0.617145 0.5 0.5 0.617145 0.617145 
0.617145 0.617145 0.617145 0.617145 0.617145 0.617145 0.617145 0.5 0.818359 
0.818359 0.5 0.617145 0.5 0.617145 0.617145 0.617145 0.818359 0.5 
0.5 0.617145 0.617145 0.617145 0.617145 0.617145 0.617145 0.617145 0.5 
0.617145 0.617145 0.617145 0.617145 0.617145 0.617145 0.617145 0.617145 0.617145 
0.617145 0.617145 0.617145 0.818359 0.617145 0.5 0.818359 0.617145 0.5 
0.5 0.617145 0.617145 0.617145 0.617145 0.5 0.617145 0.5 0.617145 
0.617145 0.617145 0.617145 0.617145 0.617145 0.617145 0.617145 0.5 0.617145 
0.617145 0.617145 0.617145 0.617145 0.617145 0.617145 0.617145 0.617145 0.617145 
0.617145 0.617145 0.617145 0.617145 0.617145 0.617145 0.5 0.5 0.818359 
0.617145 0.818359 0.617145 0.617145 0.818359 0.5 0.617145 0.818359 0.5 
0.5 0.5 0.818359 0.617145 0.617145 0.617145 0.5 0.617145 0.617145 
0.617145 0.617145 0.617145 0.617145 0.617145 0.617145 0.617145 0.5 0.818359 
0.5 0.617145 0.617145 0.617145 0.617145 0.617145 0.617145 0.617145 0.617145 
0.617145 0.617145 0.617145 0.617145 0.617145 0.617145 0.617145 0.818359 0.5 
0.818359 0.617145 0.617145 0.617145 0.617145 0.5 0.818359 0.818359 0.617145 
0.5 0.617145 0.617145 0.617145 0.617145 0.617145 0.617145 0.617145 0.617145 
0.617145 0.5 0.5 0.617145 0.617145 0.5 0.617145 0.617145 0.617145 
0.617145 0.617145 0.617145 0.617145 0.617145 0.5 0.617145 0.5 0.818359 
0.5 0.5 0.617145 0.617145 0.5 0.617145 0.5 0.617145 0.5 
0.617145 0.617145 0.617145 0.617145 0.617145 0.617145 0.617145 0.617145 0.617145 
0.617145 0.617145 0.617145 0.617145 0.617145 0.617145 0.617145 0.617145 0.617145 
0.617145 0.617145 0.5 0.617145 0.617145 0.617145 0.617145 0.617145 0.617145 
0.5 0.617145 0.617145 0.5 0.617145 0.5 0.617145 0.617145 0.617145 
0.617145 0.617145 0.617145 0.617145 0.617145 0.959016 0.5 0.617145 0.617145 
0.617145 0.5 0.617145 0.617145 0.617145 0.617145 0.617145 0.617145 0.617145 
0.617145 0.617145 0.617145 0.617145 0.5 0.617145 0.617145 0.818359 0.617145 
0.617145 0.5 0.617145 0.617145 0.617145 0.5 0.617145 0.617145 0.617145 
0.617145 0.617145 0.617145 0.617145 0.5 0.617145 0.5 0.5 0.617145 
0.5 0.5 0.5 0.617145 0.617145 0.617145 0.617145 0.818359 0.617145 
0.617145 0.617145 0.5 0.617145 0.617145 0.617145 0.617145 0.617145 0.617145 
0.818359 0.617145 0.5 0.5 0.818359 0.5 0.5 0.5 0.617145 
0.617145 0.617145 0.617145 0.5 0.818359 0.617145 0.617145 0.617145 0.617145 
0.617145 0.617145 0.617145 0.5 0.617145 0.617145 0.5 0.818359 0.5 
0.5 0.818359 0.5 0.5 0.818359 0.5 0.818359 0.818359 0.5 
0.617145 0.5 0.5 0.5 0.5 0.617145 0.617145 0.617145 0.617145 
0.617145 0.617145 0.617145 0.617145 0.617145 0.5 0.617145 0.5 0.818359 
0.5 0.617145 0.617145 0.617145 0.5 0.617145 0.617145 0.5 0.617145 
0.5 0.5 0.617145 0.818359 0.818359 0.617145 0.5 0.5 0.617145 
0.5 0.5 0.617145 0.617145 0.5 0.617145 0.617145 0.617145 0.617145 
0.617145 0.617145 0.617145 0.617145 0.959016 0.5 0.617145 0.617145 0.617145 
0.617145 0.617145 0.5 0.617145 0.617145 0.617145 0.617145 0.617145 0.617145 
0.818359 0.5 0.617145 0.5 0.818359 0.5 0.617145 0.617145 0.617145 
0.617145 0.617145 0.617145 0.818359 0.617145 0.617145 0.5 0.5 0.5 
0.818359 0.818359 0.5 0.617145 0.5 0.617145 0.617145 0.5 0.5 
0.617145 0.5 0.617145 0.617145 0.617145 0.617145 0.617145 0.617145 0.5 
0.818359 0.818359 0.5 0.617145 0.617145 0.617145 0.617145 0.617145 0.5 
0.617145 0.617145 0.617145 0.617145 0.818359 0.5 0.617145 0.617145 0.617145 
0.617145 0.617145 0.617145 0.617145 0.5 0.617145 1 1 0.617145 
0.617145 0.617145 0.617145 0.617145 0.5 0.5 0.5 0.818359 0.818359 
0.617145 0.5 0.818359 0.617145 0.959016 0.617145 0.617145 0.617145 0.5 
0.5 0.617145 0.617145 0.5 0.617145 0.617145 0.617145 0.5 0.617145 
0.959016 0.818359 0.617145 0.617145 0.818359 0.617145 0.5 0.5 0.818359 
0.5 0.818359 0.818359 0.5 0.5 0.617145 0.617145 0.617145 0.818359 
0.818359 0.5 0.818359 0.818359 0.818359 0.617145 0.617145 0.617145 0.5 
0.818359 0.5 0.617145 0.617145 0.617145 0.617145 0.617145 0.5 0.617145 
0.617145 0.5 0.617145 0.617145 0.617145 0.617145 0.617145 0.617145 0.617145 
0.617145 0.617145 0.5 0.818359 0.5 0.959016 0.617145 0.5 0.617145 
0.617145 0.5 0.5 0.617145 0.617145 0.617145 0.5 0.617145 0.5 
0.818359 0.5 0.818359 0.5 0.959016 0.617145 0.818359 0.617145 0.617145 
0.5 0.818359 0.617145 0.818359 0.959016 0.959016 0.617145 0.617145 1.260724 
1 0.5 0.617145 0.617145 0.617145 0.617145 0.617145 0.617145 0.617145 
0.5 0.959016 0.959016 0.5 0.5 0.617145 0.959016 0.617145 0.818359 
0.617145 0.959016 0.617145 0.617145 0.617145 0.617145 0.617145 0.617145 0.5 
0.959016 0.5 0.5 0.818359 0.617145 0.617145 0.617145 0.617145 0.959016 
0.5 0.617145 0.617145 0.5 0.5 0.959016 0.959016 0.5 0.617145 
0.5 0.818359 0.818359 0.818359 0.617145 0.617145 0.617145 0.617145 0.617145 
0.818359 0.617145 0.818359 0.5 0.818359 0.617145 0.617145 0.617145 0.617145 
0.959016 0.617145 0.617145 0.5 0.818359 0.5 0.959016 1 0.818359 
0.617145 0.617145 0.5 0.818359 0.818359 0.818359 0.617145 0.5 0.617145 
0.617145 0.617145 0.617145 0.617145 0.5 0.617145 0.617145 0.617145 0.617145 
0.617145 0.617145 0.818359 0.818359 0.959016 0.5 0.617145 0.818359 0.959016 
0.818359 0.617145 0.617145 0.5 0.617145 0.617145 0.617145 0.617145 0.617145 
0.5 0.818359 0.5 0.617145 0.5 0.5 0.959016 0.5 0.959016 
0.617145 0.617145 0.818359 0.5 0.818359 0.5 0.617145 0.617145 0.617145 
0.617145 0.5 0.818359 0.818359 0.818359 0.818359 0.5 0.5 0.818359 
0.5 0.818359 0.617145 0.617145 0.617145 0.617145 0.5 0.617145 0.617145 
0.617145 0.818359 0.5 0.5 0.617145 0.959016 0.818359 0.617145 0.617145 
0.617145 0.617145 0.617145 0.617145 0.617145 0.617145 0.617145 0.617145 0.5 
0.617145 0.617145 0.617145 0.617145 0.617145 0.617145 0.818359 0.818359 0.818359 
0.5 1 0.5 0.5 0.959016 0.818359 0.959016 0.617145 0.617145 
0.5 0.818359 0.5 0.5 0.617145 0.5 0.617145 0.5 0.818359 
0.818359 0.5 0.617145 0.617145 0.617145 0.818359 0.818359 0.818359 0.617145 
1.157335 0.617145 0.617145 0.617145 0.617145 0.617145 0.617145 0.617145 0.5 
0.5 0.5 0.617145 0.617145 0.617145 0.959016 0.818359 1.260724 0.959016 
0.818359 0.5 0.617145 0.617145 0.617145 0.5 0.5 0.5 0.818359 
0.5 0.818359 0.617145 0.617145 0.617145 0.617145 0.617145 0.5 0.5 
0.818359 0.818359 0.5 0.617145 0.617145 0.617145 0.617145 0.617145 0.617145 
0.5 0.617145 0.5 0.5 0.617145 0.617145 0.617145 0.818359 0.617145 
0.617145 0.617145 0.617145 0.617145 0.617145 0.617145 0.5 0.818359 0.617145 
0.617145 1.157335 0.617145 0.617145 0.617145 0.617145 0.5 0.5 0.617145 
0.5 0.818359 0.617145 0.5 0.818359 0.818359 0.617145 0.818359 0.617145 
0.5 0.818359 0.818359 0.5 0.818359 0.617145 0.617145 0.5 0.5 
0.818359 0.5 0.617145 0.5 0.959016 0.5 0.617145 0.617145 0.959016 
0.617145 0.617145 0.617145 0.617145 0.617145 0.617145 0.818359 0.818359 0.5 
0.5 0.617145 0.617145 0.617145 0.617145 0.617145 0.617145 0.617145 1.157335 
0.617145 0.5 0.617145 0.617145 0.617145 0.617145 0.5 0.5 0.959016 
0.617145 0.617145 0.617145 0.617145 0.959016 0.617145 0.959016 0.617145 0.617145 
0.617145 0.5 0.818359 0.818359 0.818359 0.818359 0.818359 0.5 0.617145 
0.617145 0.617145 0.617145 0.617145 0.617145 0.617145 0.617145 0.617145 0.5 
0.617145 0.617145 0.818359 0.5 0.959016 0.617145 0.617145 0.617145 0.617145 
0.617145 0.617145 0.5 0.818359 0.818359 0.818359 0.617145 0.617145 0.5 
0.818359 0.818359 0.617145 0.5 0.617145 0.617145 0.5 0.617145 0.5 
0.617145 0.818359 0.617145 0.617145 0.617145 0.959016 0.5 0.617145 0.617145 
0.617145 0.617145 0.617145 0.617145 0.617145 0.5 0.617145 0.617145 0.617145 
0.818359 0.617145 0.617145 0.617145 0.617145 0.5 0.959016 0.617145 0.617145 
0.617145 0.617145 0.617145 0.617145 0.617145 0.617145 0.5 0.818359 0.818359 
0.818359 0.5 0.5 0.5 0.5 0.5 0.5 0.617145 0.617145 
0.617145 0.617145 0.617145 0.818359 0.617145 0.617145 0.617145 0.617145 0.818359 
0.617145 0.617145 0.818359 0.617145 0.5 0.5 0.617145 0.617145 0.617145 
0.617145 0.617145 0.5 0.818359 0.617145 0.617145 0.617145 0.617145 0.5 
0.617145 0.818359 0.617145 0.617145 0.617145 0.617145 0.617145 0.617145 0.617145 
0.5 0.617145 0.5 0.617145 0.5 0.818359 0.5 0.617145 0.5 
0.5 0.818359 0.5 0.617145 0.617145 0.617145 0.617145 0.818359 0.617145 
0.617145 0.617145 0.5 0.818359 0.617145 0.617145 0.617145 0.617145 0.5 
0.617145 0.617145 0.617145 0.617145 0.617145 0.5 0.5 0.5 0.818359 
0.617145 0.617145 0.818359 0.5 0.617145 0.617145 0.617145 0.617145 0.818359 
0.617145 0.617145 0.617145 0.5 0.818359 0.5 0.617145 0.5 0.818359 
0.818359 0.818359 0.818359 0.818359 0.818359 0.617145 0.617145 0.617145 0.617145 
0.617145 0.5 0.617145 0.5 0.617145 0.5 0.617145 0.617145 0.5 
0.617145 0.617145 0.617145 0.5 0.5 0.617145 0.617145 0.617145 0.617145 
0.617145 0.617145 0.617145 0.818359 0.5 0.617145 0.617145 0.5 0.617145 
0.5 0.5 0.818359 0.818359 0.818359 0.5 0.617145 0.617145 0.818359 
0.818359 0.818359 0.5 0.818359 0.5 0.617145 0.5 0.5 0.818359 
0.818359 0.5 0.617145 0.5 0.5 0.617145 0.5 0.617145 0.617145 
0.959016 0.818359 0.617145 0.5 0.5 0.818359 0.818359 0.617145 0.617145 
0.617145 0.617145 0.617145 0.5 0.617145 0.5 0.617145 0.617145 0.617145 
0.5 0.617145 0.617145 0.617145 0.617145 0.617145 0.5 0.5 0.5 
0.5 0.818359 0.818359 0.818359 0.617145 0.617145 0.617145 0.617145 0.617145 
0.617145 0.5 0.818359 0.5 0.818359 0.818359 0.5 0.818359 0.818359 
0.5 0.5 0.5 0.5 0.617145 0.617145 0.617145 0.617145 0.5 
0.818359 0.818359 0.617145 0.5 0.617145 0.5 0.818359 0.617145 0.5 
0.617145 0.617145 0.617145 0.5 0.5 0.617145 0.617145 0.617145 0.617145 
0.5 0.5 0.5 0.617145 0.617145 0.818359 0.5 0.5 0.5 
0.617145 0.5 0.818359 0.5 0.5 0.5 0.5 0.617145 0.617145 
0.617145 0.617145 0.617145 1.260724 0.959016 0.959016 0.617145 0.617145 0.617145 
0.617145 0.617145 0.617145 0.617145 0.617145 0.617145 0.617145 0.617145 0.617145 
0.617145 0.617145 0.617145 0.617145 0.617145 0.5 0.617145 0.617145 0.617145 
1.260724 0.617145 0.617145 0.617145 0.617145 0.617145 0.617145 0.617145 0.5 
0.617145 0.617145 0.617145 0.5 0.617145 0.5 0.818359 0.617145 0.617145 
0.959016 0.5 0.5 0.5 0.5 0.617145 0.5 0.818359 0.5 
0.5 0.617145 0.5 0.617145 0.5 0.617145 0.617145 0.5 0.959016 
0.818359 0.818359 0.617145 0.959016 0.5 0.617145 0.617145 0.959016 0.617145 
0.617145 0.617145 0.5 0.617145 0.617145 0.5 0.5 0.818359 0.818359 
0.5 0.818359 0.5 0.617145 0.617145 0.617145 0.617145 0.617145 0.5 
0.5 0.5 0.5 0.818359 0.5 0.617145 0.5 0.617145 0.617145 
0.617145 0.5 0.818359 0.5 1.260724 0.617145 0.818359 0.5 0.5 
0.617145 0.617145 0.617145 0.959016 0.617145 0.617145 0.5 0.818359 0.617145 
0.5 0.617145 0.5 0.617145 0.5 1.260724 0.818359 0.5 0.818359 
0.617145 0.818359 0.5 0.617145 0.5 0.818359 0.818359 0.818359 0.617145 
0.5 0.5 0.818359 0.5 0.617145 0.617145 0.617145 0.617145 0.617145 
0.818359 0.617145 0.5 0.818359 0.617145 0.5 0.818359 0.818359 0.818359 
0.959016 0.617145 1.292173 0.5 0.959016 0.818359 0.5 0.5 0.617145 
0.959016 0.617145 0.617145 0.617145 0.617145 0.617145 0.5 0.617145 0.5 
0.818359 1.260724 0.818359 0.818359 0.5 0.617145 0.5 0.818359 0.5 
0.5 0.5 0.5 0.818359 0.617145 0.5 0.5 0.818359 0.617145 
0.617145 0.617145 0.617145 0.617145 0.959016 0.818359 0.959016 0.617145 0.617145 
0.959016 0.617145 0.5 0.5 0.818359 0.617145 0.617145 0.617145 0.5 
0.818359 0.818359 0.617145 1 0.959016 0.818359 0.5 0.5 0.5 
0.617145 0.617145 0.818359 0.617145 0.617145 0.617145 0.617145 0.617145 0.617145 
0.617145 0.617145 0.617145 0.617145 0.5 0.5 0.818359 0.5 0.617145 
0.617145 0.617145 0.617145 0.5 0.818359 0.5 0.617145 0.959016 0.5 
0.5 0.5 0.818359 0.5 0.5 0.818359 0.5 0.5 0.5 
0.617145 0.959016 1 1.260724 1 0.617145 0.959016 1.292173 0.959016 
0.617145 0.818359 0.959016 1.157335 0.5 0.617145 0.617145 0.617145 0.617145 
0.5 0.617145 0.617145 0.5 0.5 0.5 0.5 0.5 0.5 
0.959016 0.818359 0.818359 0.617145 0.617145 0.617145 0.617145 0.818359 0.5 
0.5 0.818359 0.5 0.617145 0.617145 0.617145 0.617145 0.818359 0.617145 
0.617145 0.617145 0.617145 0.5 0.818359 0.5 0.959016 0.617145 0.5 
0.5 0.617145 0.818359 0.5 0.5 0.818359 0.5 0.617145 0.617145 
0.5 0.818359 0.818359 0.5 0.818359 0.818359 0.5 0.617145 0.5 
0.5 0.5 0.617145 0.5 0.818359 1 0.617145 0.5 0.617145 
0.818359 0.5 0.617145 0.617145 0.617145 0.617145 0.5 0.617145 0.617145 
1.260724 0.959016 0.959016 0.818359 0.617145 0.5 0.617145 0.617145 0.818359 
0.617145 0.617145 0.5 0.5 0.5 0.818359 0.5 0.5 0.617145 
0.617145 0.617145 0.617145 0.617145 0.617145 0.617145 0.617145 0.617145 0.617145 
0.617145 0.617145 0.617145 0.617145 0.617145 0.818359 0.617145 0.617145 0.617145 
0.617145 0.818359 0.818359 0.5 0.617145 0.617145 0.818359 0.5 0.5 
0.5 0.5 0.617145 0.617145 0.5 0.818359 0.5 0.617145 0.5 
0.617145 0.617145 1.292173 0.5 0.617145 1.292173 1.529518 0.959016 0.617145 
0.617145 0.959016 0.818359 0.5 0.818359 0.5 0.617145 0.617145 0.617145 
0.617145 0.617145 0.617145 0.5 0.617145 0.617145 0.617145 1.260724 1.260724 
0.818359 0.818359 0.818359 0.959016 0.818359 0.818359 0.617145 0.617145 0.5 
0.617145 0.617145 0.5 0.5 0.617145 0.617145 0.617145 0.617145 0.617145 
0.617145 0.617145 0.617145 0.617145 0.959016 0.5 0.617145 0.5 0.617145 
0.617145 0.818359 0.617145 0.617145 0.617145 0.617145 0.617145 0.617145 0.5 
0.5 0.617145 0.617145 0.818359 0.5 0.617145 0.617145 0.5 0.5 
0.959016 0.617145 1.636719 0.5 0.959016 0.617145 0.617145 0.5 0.617145 
0.617145 0.617145 0.617145 0.617145 0.617145 0.959016 0.617145 0.617145 0.5 
0.617145 0.617145 0.617145 0.617145 0.617145 0.617145 0.617145 0.5 0.617145 
0.5 0.617145 0.617145 0.617145 0.5 0.617145 0.617145 0.617145 0.617145 
0.5 0.617145 0.5 0.5 0.818359 0.818359 0.818359 0.617145 0.617145 
0.617145 0.617145 0.617145 0.818359 0.617145 0.818359 0.617145 0.818359 0.5 
0.5 0.5 0.5 0.818359 0.959016 0.959016 1.260724 0.959016 0.617145 
0.617145 0.818359 0.959016 0.617145 0.617145 0.818359 0.617145 0.617145 0.617145 
0.617145 0.617145 0.617145 0.617145 0.617145 0.617145 0.617145 0.617145 0.617145 
0.617145 0.959016 0.617145 0.617145 0.617145 0.959016 0.617145 0.617145 0.617145 
0.5 0.818359 0.617145 0.617145 0.617145 0.5 0.818359 0.818359 0.818359 
0.959016 0.617145 0.617145 0.617145 0.617145 0.617145 0.617145 0.5 0.617145 
0.617145 0.5 0.617145 0.617145 0.617145 0.617145 0.617145 0.617145 0.5 
0.5 0.5 0.617145 0.5 0.818359 0.617145 0.5 0.617145 0.617145 
0.5 0.617145 0.617145 0.959016 0.5 0.617145 0.818359 0.959016 0.617145 
0.5 0.818359 0.5 0.5 0.5 0.5 0.5 0.818359 0.617145 
0.5 0.5 0.818359 0.5 0.959016 0.5 0.617145 0.5 0.818359 
0.818359 0.5 0.617145 0.617145 0.617145 0.5 0.617145 0.617145 0.818359 
0.617145 0.617145 0.617145 0.818359 0.818359 0.617145 0.617145 0.617145 0.5 
0.617145 0.617145 0.5 0.818359 0.5 0.959016 0.818359 0.617145 0.617145 
0.617145 0.617145 0.5 0.818359 0.617145 0.818359 0.818359 0.617145 0.617145 
0.617145 0.617145 0.617145 0.5 0.818359 0.617145 0.617145 0.617145 0.617145 
0.617145 0.617145 0.617145 0.617145 0.617145 0.617145 0.617145 0.617145 0.617145 
0.617145 0.617145 0.617145 0.617145 0.617145 0.959016 0.617145 0.5 0.617145 
0.5 0.617145 0.617145 0.5 0.5 0.617145 0.5 0.5 0.617145 
0.5 0.818359 0.5 0.617145 0.617145 0.617145 0.5 0.5 0.617145 
0.617145 0.617145 0.617145 0.617145 0.617145 0.617145 0.617145 0.617145 0.617145 
0.617145 0.617145 0.617145 0.617145 0.617145 0.617145 0.617145 0.959016 0.5 
0.818359 0.5 0.5 0.617145 0.5 0.5 0.5 0.617145 0.5 
0.5 0.617145 0.959016 0.617145 0.617145 0.818359 0.818359 0.959016 0.5 
0.5 0.818359 0.617145 0.5 0.617145 0.617145 0.617145 0.617145 0.617145 
0.617145 0.617145 0.617145 0.617145 0.617145 0.5 0.5 0.617145 0.818359 
0.959016 0.818359 0.617145 0.959016 0.617145 0.617145 0.5 0.617145 0.5 
0.617145 0.617145 0.617145 0.617145 0.617145 0.617145 0.617145 0.617145 0.617145 
0.617145 0.617145 0.617145 0.5 0.617145 0.617145 0.617145 0.617145 0.617145 
0.617145 0.617145 0.818359 0.617145 0.617145 0.617145 0.5 0.5 0.617145 
0.818359 0.617145 0.5 0.5 0.818359 0.617145 0.617145 0.617145 0.617145 
0.617145 0.959016 0.818359 0.617145 0.5 0.617145 0.617145 0.617145 0.617145 
0.5 0.5 1 1.260724 0.959016 0.818359 0.5 0.617145 0.617145 
0.818359 0.959016 0.818359 0.818359 0.5 0.5 0.5 0.5 0.5 
0.5 0.617145 0.617145 0.617145 0.5 0.818359 0.5 0.617145 0.617145 
0.617145 0.617145 0.617145 0.617145 0.5 0.617145 0.617145 0.617145 0.617145 