# vtk DataFile Version 5.1
vtk output
ASCII
DATASET POLYDATA
POINTS 17119 float
-113.794 -72.4951 476.6 -113.794 -72.4951 477.1 -113.794 -72.4951 477.6 
-112.976 -74.1318 415.6 -112.976 -71.6768 480.6 -112.157 -74.9502 416.1 
-112.157 -73.3135 416.1 -112.157 -73.3135 416.6 -112.157 -71.6768 482.1 
-111.339 -80.6787 420.6 -111.339 -79.8604 419.6 -111.339 -78.2236 418.1 
-111.339 -74.1318 416.1 -111.339 -74.1318 416.6 -111.339 -73.3135 415.6 
-111.339 -73.3135 417.1 -111.339 -72.4951 416.1 -111.339 -72.4951 416.6 
-111.339 -71.6768 417.1 -111.339 -70.8584 472.6 -111.339 -70.8584 473.1 
-111.339 -68.4033 413.6 -111.339 -52.0361 387.6 -110.521 -87.2256 423.6 
-110.521 -87.2256 424.1 -110.521 -85.5889 421.6 -110.521 -84.7705 421.1 
-110.521 -83.9521 421.1 -110.521 -83.1338 421.1 -110.521 -82.3154 421.1 
-110.521 -81.4971 421.1 -110.521 -80.6787 421.6 -110.521 -80.6787 422.1 
-110.521 -79.8604 420.1 -110.521 -79.042 419.1 -110.521 -78.2236 418.6 
-110.521 -77.4053 417.1 -110.521 -77.4053 417.6 -110.521 -76.5869 416.6 
-110.521 -75.7686 416.1 -110.521 -74.9502 416.1 -110.521 -73.3135 416.1 
-110.521 -73.3135 416.6 -110.521 -71.6768 417.6 -110.521 -70.8584 472.1 
-110.521 -67.585 414.1 -110.521 -66.7666 412.6 -110.521 -66.7666 413.1 
-110.521 -66.7666 413.6 -109.702 -88.0439 424.6 -109.702 -88.0439 425.1 
-109.702 -88.0439 425.6 -109.702 -87.2256 423.1 -109.702 -86.4072 422.1 
-109.702 -86.4072 422.6 -109.702 -81.4971 423.6 -109.702 -80.6787 422.6 
-109.702 -80.6787 423.1 -109.702 -79.8604 435.1 -109.702 -71.6768 419.6 
-109.702 -70.8584 418.1 -109.702 -70.8584 418.6 -109.702 -70.8584 419.1 
-109.702 -70.04 473.1 -108.884 -88.0439 426.1 -108.884 -88.0439 426.6 
-108.884 -88.0439 427.1 -108.884 -87.2256 421.6 -108.884 -87.2256 427.6 
-108.884 -87.2256 451.6 -108.884 -87.2256 452.1 -108.884 -86.4072 427.1 
-108.884 -85.5889 427.1 -108.884 -84.7705 427.1 -108.884 -83.1338 426.1 
-108.884 -83.1338 437.6 -108.884 -83.1338 438.1 -108.884 -82.3154 425.6 
-108.884 -82.3154 436.6 -108.884 -82.3154 437.1 -108.884 -81.4971 424.6 
-108.884 -81.4971 425.1 -108.884 -81.4971 436.1 -108.884 -80.6787 424.1 
-108.884 -80.6787 435.6 -108.884 -79.042 435.1 -108.884 -78.2236 434.6 
-108.884 -77.4053 434.1 -108.884 -76.5869 433.6 -108.884 -74.1318 422.6 
-108.884 -73.3135 422.1 -108.884 -73.3135 456.1 -108.884 -72.4951 421.1 
-108.884 -72.4951 421.6 -108.884 -71.6768 420.6 -108.884 -70.8584 420.1 
-108.065 -92.9541 445.6 -108.065 -92.9541 449.1 -108.065 -92.1357 446.1 
-108.065 -92.1357 446.6 -108.065 -92.1357 447.1 -108.065 -92.1357 448.6 
-108.065 -91.3174 447.6 -108.065 -91.3174 448.1 -108.065 -90.499 429.6 
-108.065 -90.499 491.1 -108.065 -89.6807 429.1 -108.065 -88.8623 428.6 
-108.065 -88.0439 428.1 -108.065 -87.2256 452.6 -108.065 -87.2256 453.1 
-108.065 -87.2256 453.6 -108.065 -87.2256 454.1 -108.065 -86.4072 422.1 
-108.065 -84.7705 439.1 -108.065 -84.7705 439.6 -108.065 -83.9521 427.1 
-108.065 -83.9521 438.6 -108.065 -83.1338 426.6 -108.065 -78.2236 449.1 
-108.065 -77.4053 449.6 -108.065 -77.4053 450.1 -108.065 -75.7686 433.1 
-108.065 -74.9502 423.6 -108.065 -74.9502 433.1 -108.065 -74.1318 423.1 
-108.065 -74.1318 432.6 -108.065 -73.3135 432.1 -108.065 -73.3135 455.1 
-108.065 -73.3135 455.6 -108.065 -73.3135 456.6 -108.065 -73.3135 457.1 
-108.065 -72.4951 432.1 -108.065 -71.6768 431.6 -108.065 -70.8584 431.6 
-108.065 -70.04 431.1 -107.247 -93.7725 450.1 -107.247 -93.7725 450.6 
-107.247 -93.7725 451.1 -107.247 -92.9541 445.1 -107.247 -92.9541 449.6 
-107.247 -92.1357 431.1 -107.247 -91.3174 430.6 -107.247 -90.499 430.1 
-107.247 -87.2256 454.6 -107.247 -85.5889 422.1 -107.247 -84.7705 440.1 
-107.247 -83.9521 443.6 -107.247 -83.9521 444.1 -107.247 -83.9521 444.6 
-107.247 -83.9521 445.1 -107.247 -83.9521 445.6 -107.247 -73.3135 457.6 
-107.247 -73.3135 458.6 -107.247 -72.4951 459.1 -107.247 -69.2217 431.1 
-107.247 -65.1299 418.6 -107.247 -60.2197 414.6 -107.247 -60.2197 415.1 
-106.429 -94.5908 451.6 -106.429 -94.5908 452.1 -106.429 -94.5908 452.6 
-106.429 -94.5908 453.1 -106.429 -94.5908 453.6 -106.429 -94.5908 454.1 
-106.429 -94.5908 456.1 -106.429 -93.7725 444.6 -106.429 -92.9541 432.1 
-106.429 -92.9541 444.1 -106.429 -92.1357 431.6 -106.429 -92.1357 443.6 
-106.429 -90.499 443.1 -106.429 -89.6807 442.6 -106.429 -87.2256 455.1 
-106.429 -85.5889 422.1 -106.429 -85.5889 440.6 -106.429 -85.5889 441.1 
-106.429 -84.7705 443.1 -106.429 -84.7705 446.1 -106.429 -84.7705 446.6 
-106.429 -83.9521 447.1 -106.429 -83.9521 447.6 -106.429 -83.9521 466.1 
-106.429 -83.1338 449.6 -106.429 -74.1318 458.1 -106.429 -68.4033 431.1 
-106.429 -67.585 430.1 -106.429 -67.585 430.6 -106.429 -67.585 431.6 
-105.61 -95.4092 456.6 -105.61 -94.5908 454.6 -105.61 -94.5908 455.1 
-105.61 -94.5908 455.6 -105.61 -93.7725 432.6 -105.61 -93.7725 433.1 
-105.61 -93.7725 433.6 -105.61 -93.7725 444.6 -105.61 -91.3174 443.6 
-105.61 -88.8623 442.6 -105.61 -88.0439 442.1 -105.61 -88.0439 457.1 
-105.61 -88.0439 457.6 -105.61 -87.2256 441.6 -105.61 -87.2256 455.6 
-105.61 -87.2256 456.1 -105.61 -86.4072 441.6 -105.61 -86.4072 442.1 
-105.61 -85.5889 442.6 -105.61 -84.7705 422.6 -105.61 -84.7705 448.1 
-105.61 -83.9521 448.6 -105.61 -83.9521 449.1 -105.61 -83.1338 450.1 
-105.61 -79.042 463.6 -105.61 -79.042 464.1 -105.61 -75.7686 456.6 
-105.61 -74.9502 457.1 -105.61 -74.1318 457.6 -105.61 -74.1318 458.6 
-105.61 -66.7666 429.6 -105.61 -66.7666 432.1 -105.61 -65.9482 429.1 
-105.61 -65.9482 432.1 -105.61 -65.1299 428.6 -105.61 -64.3115 428.6 
-104.792 -95.4092 457.1 -104.792 -94.5908 434.1 -104.792 -94.5908 445.1 
-104.792 -88.0439 458.1 -104.792 -88.0439 458.6 -104.792 -87.2256 456.6 
-104.792 -87.2256 472.1 -104.792 -87.2256 472.6 -104.792 -87.2256 473.1 
-104.792 -84.7705 442.6 -104.792 -83.9521 423.1 -104.792 -79.042 464.6 
-104.792 -79.042 466.6 -104.792 -74.1318 459.1 -104.792 -65.9482 455.6 
-104.792 -65.9482 456.1 -104.792 -65.1299 432.1 -104.792 -64.3115 432.6 
-104.792 -63.4932 428.1 -104.792 -62.6748 427.1 -104.792 -62.6748 427.6 
-103.974 -95.4092 445.6 -103.974 -95.4092 457.6 -103.974 -88.0439 459.1 
-103.974 -88.0439 459.6 -103.974 -84.7705 442.6 -103.974 -83.1338 423.1 
-103.974 -79.042 465.1 -103.974 -79.042 465.6 -103.974 -79.042 466.1 
-103.974 -79.042 467.1 -103.974 -79.042 467.6 -103.974 -79.042 470.1 
-103.974 -73.3135 459.6 -103.974 -73.3135 460.1 -103.974 -73.3135 460.6 
-103.974 -65.9482 457.1 -103.974 -65.9482 457.6 -103.974 -65.9482 458.1 
-103.974 -65.1299 456.6 -103.974 -63.4932 433.1 -103.974 -61.8564 426.6 
-103.974 -61.0381 426.1 -103.974 -59.4014 425.1 -103.974 -58.583 424.6 
-103.974 -57.7646 424.6 -103.974 -56.9463 424.6 -103.155 -97.8643 446.6 
-103.155 -97.0459 446.1 -103.155 -96.2275 446.1 -103.155 -95.4092 457.1 
-103.155 -88.0439 460.1 -103.155 -84.7705 442.6 -103.155 -83.1338 422.6 
-103.155 -79.8604 468.1 -103.155 -79.8604 468.6 -103.155 -79.8604 469.6 
-103.155 -76.5869 481.6 -103.155 -76.5869 482.1 -103.155 -72.4951 461.1 
-103.155 -65.1299 458.6 -103.155 -65.1299 459.6 -103.155 -65.1299 460.1 
-103.155 -65.1299 460.6 -103.155 -65.1299 461.1 -103.155 -65.1299 462.1 
-103.155 -65.1299 462.6 -103.155 -65.1299 463.1 -103.155 -62.6748 433.6 
-103.155 -62.6748 434.1 -103.155 -62.6748 434.6 -103.155 -61.8564 435.1 
-103.155 -60.2197 426.1 -103.155 -59.4014 425.6 -103.155 -56.1279 424.1 
-103.155 -55.3096 423.6 -102.337 -104.411 434.1 -102.337 -104.411 434.6 
-102.337 -97.0459 455.1 -102.337 -97.0459 455.6 -102.337 -96.2275 456.1 
-102.337 -96.2275 456.6 -102.337 -88.0439 460.6 -102.337 -88.0439 461.1 
-102.337 -84.7705 443.1 -102.337 -82.3154 423.1 -102.337 -79.8604 469.1 
-102.337 -75.7686 482.6 -102.337 -75.7686 483.1 -102.337 -74.9502 483.6 
-102.337 -73.3135 417.6 -102.337 -73.3135 418.1 -102.337 -71.6768 461.6 
-102.337 -65.9482 461.6 -102.337 -64.3115 459.1 -102.337 -63.4932 459.1 
-102.337 -61.0381 435.1 -102.337 -60.2197 435.6 -102.337 -57.7646 411.6 
-102.337 -54.4912 423.1 -102.337 -53.6729 423.1 -102.337 -52.8545 409.1 
-102.337 -52.8545 409.6 -102.337 -52.8545 410.1 -101.519 -104.411 435.1 
-101.519 -98.6826 440.1 -101.519 -98.6826 440.6 -101.519 -88.0439 461.6 
-101.519 -88.0439 462.1 -101.519 -87.2256 462.6 -101.519 -87.2256 463.1 
-101.519 -83.9521 443.6 -101.519 -81.4971 423.1 -101.519 -80.6787 469.6 
-101.519 -74.9502 484.6 -101.519 -74.1318 484.1 -101.519 -73.3135 484.6 
-101.519 -71.6768 461.6 -101.519 -66.7666 461.6 -101.519 -62.6748 459.1 
-101.519 -59.4014 436.1 -101.519 -59.4014 436.6 -101.519 -58.583 437.1 
-101.519 -58.583 437.6 -101.519 -52.8545 422.6 -101.519 -52.0361 410.6 
-101.519 -52.0361 411.1 -101.519 -52.0361 411.6 -100.7 -105.229 435.1 
-100.7 -104.411 457.6 -100.7 -104.411 458.1 -100.7 -104.411 458.6 
-100.7 -104.411 459.1 -100.7 -104.411 459.6 -100.7 -104.411 460.1 
-100.7 -104.411 460.6 -100.7 -104.411 463.6 -100.7 -104.411 469.1 
-100.7 -103.593 434.6 -100.7 -103.593 461.1 -100.7 -103.593 461.6 
-100.7 -103.593 462.1 -100.7 -103.593 462.6 -100.7 -103.593 463.1 
-100.7 -103.593 464.1 -100.7 -103.593 464.6 -100.7 -103.593 465.1 
-100.7 -103.593 465.6 -100.7 -103.593 466.1 -100.7 -103.593 466.6 
-100.7 -103.593 467.1 -100.7 -103.593 467.6 -100.7 -103.593 468.6 
-100.7 -97.8643 441.1 -100.7 -83.9521 443.1 -100.7 -81.4971 422.6 
-100.7 -81.4971 453.1 -100.7 -81.4971 453.6 -100.7 -81.4971 470.1 
-100.7 -72.4951 484.6 -100.7 -71.6768 461.6 -100.7 -71.6768 485.1 
-100.7 -70.8584 485.6 -100.7 -67.585 461.6 -100.7 -61.8564 459.1 
-100.7 -57.7646 438.1 -100.7 -57.7646 438.6 -100.7 -56.9463 439.1 
-100.7 -56.1279 439.6 -100.7 -54.4912 444.6 -100.7 -54.4912 445.1 
-100.7 -54.4912 445.6 -100.7 -54.4912 446.1 -100.7 -54.4912 446.6 
-100.7 -54.4912 447.1 -100.7 -54.4912 447.6 -100.7 -54.4912 448.1 
-100.7 -52.0361 422.6 -100.7 -51.2178 412.1 -100.7 -51.2178 412.6 
-100.7 -51.2178 413.1 -100.7 -51.2178 413.6 -99.8818 -106.048 436.6 
-99.8818 -105.229 434.6 -99.8818 -105.229 435.1 -99.8818 -105.229 469.6 
-99.8818 -105.229 470.1 -99.8818 -105.229 470.6 -99.8818 -104.411 434.1 
[...]
POINT_DATA 17119
FIELD FieldData 2
Radius 1 17119 double
0 0 0 0 0 0 0 0 0 
0.959016 0.818359 0.5 0 0 0 0 0 0 
0 0 0 0 0 0 0 0.5 0.5 
0.5 0.5 0.5 0.818359 0.818359 0.818359 0.818359 0.818359 0.5 
0.818359 0.818359 0.818359 0.5 0.5 0 0 0 0 
0 0 0 0 0 0 0 0.5 0.5 
0.5 0.818359 0.818359 0.5 0.5 0 0 0 0 
0 0 0.5 0.5 0 0.5 0 0 0.5 
0.5 0 0.5 0.959016 0.5 0.5 0.959016 0.959016 0.818359 
0.5 0.959016 0.5 0.818359 0.959016 0.959016 0.959016 0.959016 0 
0 0 0 0 0 0 0 0 0 
0 0 0 0 0 0.5 0 0.818359 0.5 
0.5 0 0 0 0 0 0.959016 0.5 0 
0.959016 0.5 0 0 0 0.818359 0 0.818359 0 
0.818359 0.818359 0 0 0 0 0.818359 0.959016 0.818359 
0.818359 0 0 0 0 0 0.5 0.5 0.5 
0 0 0.5 0.5 0 0 0 0 0 
0 0 1.157335 0 0 0 0 0 0 
0 0 0 0 0.818359 0.5 0.959016 0.5 0.959016 
0.5 0.5 0 0 0.5 0.5 0 0 0 
0 0 0 0 0 1.157335 0.818359 0.818359 0.818359 
0 0 0 0 0.5 0.818359 0.5 0.959016 0.818359 
0.5 0.5 0.5 0.5 0 0.5 0.818359 0 0.5 
0.818359 0 0 0 0 0 0 0 0 
0 0 0.5 0.5 0.818359 0 0.818359 0 0 
0 0.5 0.959016 0 0 0.5 0 0 0 
0.5 0 0 0 0 0 0 0.818359 0.818359 
0 0 0 0.5 0 0 0 0.5 0 
0 0 0 0 0 0 0 0.5 0 
0 0.5 0.818359 0 0.5 0 0 0 0 
0 0 0 0 0.5 0 0 0 0 
0 0.5 0 0 0 0 0.5 0.818359 0.818359 
0.818359 0.818359 0.818359 0.818359 0.5 0.5 0.5 0 0 
0 0 0 0 0 0 0 0 0 
0 0 0 0 0 0 0 0 0 
0 0 0 0.818359 0 0 0 0 0 
0 0 0 0 0 0 0 0 0 
0 0 0 0 0 0 0 0 0 
0 0 0 0 0.5 0 0 0 0 
0 0 0 0 0 0 0 0 0 
0 0 0 0 0 0 0 0 0 
0 0 0 0 0 0 0 0 0 
0 0 0 0.5 0.818359 0 0 0 0 
0 0 0 0 0.5 0 0 0 0 
0 0 0 0 0 0 0 0 0 
0 0 0 0 0 0 0 0 0 
0 0 0 0 0 0 0 0 0 
0 0 0.5 0.5 0.818359 0 0 0 0 
0 0 0 0 0 0 0 0 0 
0 0 0 0 0 0 0 0 0.5 
0 0 0 0.5 0.5 0.818359 0.818359 0.818359 0 
0.5 0.5 0 0 0 0 0 0 0 
0.5 0 0 0.5 0.818359 0 0 0 0 
0 0 0 0 0 0 0 0 0 
0.5 0 0 0 0 0 0.5 0.959016 0 
0.5 0 0.5 0.818359 0.5 0.818359 0 0 0.5 
0 0 0 0 0 0 0 0 0 
0 0 0 0 0 0 0 0 0 
0 0.5 0.818359 0.818359 0.5 0 0 0 0.5 
0.5 0 0 0 0.818359 0.818359 0 0 0 
0.5 0 0 0 0 0 0 0 0 
0 0 0 0 0.5 0.818359 0.5 0.5 0 
0 0 0 0 0 0 0 0 0 
0 0 0.5 0 0 0.5 0 0.5 0 
0.5 0.818359 0.818359 0 0.5 0.5 0 0 0 
0.5 0.5 0 0 0 0.818359 0.5 0 0 
0 0 0.5 0.818359 0.5 0 0.5 0.5 0 
0 0 0 0 0 0 0 0 0 
0 0.5 0.5 0 0 0.5 0.818359 0.818359 0.5 
0.5 0.5 0 0 0 0.818359 0.5 0 0.818359 
0.5 0.818359 0.5 0.5 0.818359 0.818359 0.818359 0 0 
0 0 0.818359 0.5 0.5 0 0.5 0 0 
0 0 0 0 0 0 0 0.5 0.818359 
0 0 0 0 0 0 0 0 0 
0 0.5 0.5 0.818359 0.818359 0.818359 0.959016 1 0 
0.5 0.5 0.5 0.5 0 0.5 0 0.959016 0.5 
0.5 0.5 0 0 0.959016 0.959016 0 0 0 
0 0 0 0.5 0 0 0 0 0 
0 0 0 0 0 0 0 0.5 0 
0.5 0.818359 0.5 0 0 0 0.5 0.5 0 
0 0 0 0 0 0 0 0 0 
0 0.818359 1 0 0.5 0 0.5 0.5 0.5 
0 0.5 0 0 0.959016 0.5 0.818359 0.818359 0.5 
0 0 0 0 0.5 0.5 0 0.5 0 
0 0 0 0 0.5 0 0.5 0.5 0 
0 0 0 0.5 0.5 0.5 0 0 0 
0 0 0 0 0 0 0 0.5 0 
0.5 0.5 0.5 0.5 0.5 0 0 0 0.5 
1.260724 0 0.959016 0.818359 0 0.5 0 0 0 
0.5 0.5 0.5 0 0 0 0 0.5 0.5 
0 0.5 0 0 0 0 0 0 0 
0 0 0 0 0 0 0 0.5 0.5 
0.5 0 0 0 0 0 0 0 0 
0 0 0 0 0 0 0 0 0 
0.5 0 0 0 0.5 0.5 0 0 0 
0 0.5 0 0 0.5 0 0 0 0 
0 0.5 0 0 0 0 0 0.5 0.5 
0.5 0.818359 0 0 0 0 0.5 0.818359 0 
0 0 0.5 0 0 0 0 0.5 0.5 
0.5 0 0 0 0 0 0 0 0 
0 0 0 0 0 0 0 0 0 
0 0 0.5 0.818359 0.818359 0 0.5 0 0.5 
0.5 0.5 0 0 0 0 0 0 0.818359 
0.5 0.5 0 0 0 0 0 0 0 
0.5 0 0 0 0 0 0 0 0 
0 0 0 0 0 0 0 0 0 
0.818359 0 0.5 0.818359 0 0.5 0.5 0 0 
0 0 0.5 0 0.5 0 0 0 0 
0 0 0 0 0.5 0 0.818359 0.818359 0.818359 
0 0 0.5 0.5 0 0 0 0 0 
0 0 0 0 0 0 0 0 0 
0 0.5 0.5 0.818359 0 0.818359 0 0 0.5 
0.818359 0.5 0 0.818359 0.5 0.5 0.5 0.818359 0 
0.5 0 0.5 0 0.5 0 0 0 0 
0 0 0 0 0 0 0 0 0.5 
0.818359 0.5 0 0 0 0 0 0 0 
0 0 0 0 0 0 0 0 0 
0 0 0 0 0 0 0 0.818359 0.5 
0.818359 0 0 0 0 0 0 0 0 
0 0.818359 0.818359 0.818359 0.818359 0.818359 0.818359 0.5 0.818359 
0.818359 0 0 0.5 0 0 0 0 0 
0 0 0 0 0 0.5 0.5 0 0 
0.5 0 0 0 0 0 0 0 0 
0.5 0 0.5 0.818359 0.5 0.5 0 0 0 
0 0.5 0.5 0 0 0.5 0 0.5 0 
0 0 0 0.5 0 0 0 0 0.5 
0 0 0 0 0 0 0 0 0 
0 0 0 0 0 0 0 0 0 
0.5 0 0 0 0 0 0 0 0.5 
0 0 0 0 0 0 0 0 0 
0 0 0.5 0 0 0.5 0 0 0 
0 0 0 0 0 0 0 0 0 
0 0 0 0.959016 0.5 0 0 0 0 
0.5 0 0.5 0 0 0 0 0 0 
0 0 0 0 0 0 0 0 0 
0 0 0 0.5 0 0 0.818359 0 0 
0.5 0 0 0 0.5 0 0 0 0 
0 0.5 0 0 0 0.5 0 0 0.5 
0 0 0 0.5 0 0 0 0 0 
0.5 0 0 0.5 0.5 0.5 0 0 0 
0 0.818359 0 0 0 0 0 0 0.5 
0 0 0 0 0 0 0.818359 0 0.5 
0.5 0.818359 0.5 0.5 0.5 0 0 0 0 
0 0.5 0 0 0 0.5 0 0 0 
0.818359 0 0 0 0 0 0 0 0 
0 0 0 0 0 0.5 0 0 0.5 
0.818359 0.5 0.5 0.818359 0.5 0.5 0.818359 0.5 0.818359 
0.818359 0.5 0 0.5 0.5 0.5 0.5 0 0 
0.5 0.5 0.818359 0 0 0 0.5 0 0 
0 0 0 0 0 0 0.5 0 0 
0.5 0.818359 0.5 0 0 0 0 0 0 
0.5 0 0 0.5 0 0 0 0 0.5 
0 0.5 0 0.818359 0.818359 0 0.5 0.5 0 
0.5 0.5 0.5 0 0 0 0 0 0.5 
0 0 0 0 0 0 0 0 0 
0 0 0 0 0 0 0 0.959016 0.5 
0 0 0 0 0 0.5 0 0 0 
0 0 0 0.818359 0.5 0 0.5 0.818359 0.5 
0.818359 0.5 0.5 0.5 0 0 0 0 0.5 
0 0 0.5 0.818359 0 0 0.5 0 0.5 
0.5 0.818359 0.818359 0.5 0 0.5 0 0 0.5 
0.5 0 0.5 0 0 0 0 0 0 
0 0 0.5 0.818359 0.818359 0 0 0.5 0 
0 0 0 0.818359 0.818359 0 0.5 0 0 
0 0 0.818359 0.5 0.5 0.5 0 0 0 
0 0 0 0 0 0 0 0 0 
0 0 0 0 0 0 0 0.5 0 
1 1 0 0 0 0 0 0.5 0.5 
0 0 0 0 0 0 0.5 0.818359 0.818359 
0 0.5 0.818359 0 0.959016 0.5 0 0 0 
0.5 0.5 0 0 0 0 0 0.5 0 
0 0 0.5 0 0.959016 0.818359 0 0 0.818359 
0 0.5 0.5 0.818359 0.5 0.818359 0.818359 0.5 0.5 
0 0 0 0.818359 0.818359 0.5 0.818359 0.818359 0 
0 0 0 0 0 0 0.818359 0 0 
0 0.5 0.818359 0.5 0.5 0.5 0 0 0 
0 0 0 0 0 0 0 0 0.5 
0 0 0 0.5 0 0 0 0 0 
0 0 0 0 0 0 0 0 0 
0 0 0.5 0.818359 0.5 0.959016 0 0.5 0 
0.818359 0 0.5 0 0.5 0 0 0 0.5 
0 0.5 0.818359 0.5 0.818359 0.5 0.959016 0 0.818359 
0 0 0 0.5 0.818359 0 0.818359 0.959016 0.959016 
0 0 1.260724 1 0.5 0 0 0 0 
0 0 0 0 0 0.5 0 0 0.959016 
0.959016 0.5 0.5 0 0 0 0 0 0 
0.959016 0 0.818359 0.959016 0 0.959016 0 0 0 
0 0 0 0.5 0 0 0.959016 0.5 0.5 
0.818359 0 0 0 0 0.959016 0.5 0 0 
0 0.5 0.5 0.5 0.959016 0 0.818359 0.5 0 
0.5 0.5 0.959016 0 0 0 0.5 0 0 
0 0 0.5 0 0.5 0.818359 0.959016 0.818359 0.818359 
0 0 0 0 0 0.818359 0 0 0 
0 0 0 0 0.818359 0.5 0.818359 0 0 
0 0 0.959016 0 0.5 0 0 0.5 0.818359 
0.5 0 0 0 0 0 0 0.5 0.959016 
1 0 0 0 0.818359 0.818359 0.818359 0.818359 0 
0 0.5 0.818359 0.5 0.5 0.5 0.5 0.5 0.5 
0 0 0 0.5 0.818359 0.5 0.818359 0.818359 0 
0 0 0.5 0 0 0 0 0 0.5 
0 0 0 0 0 0 0 0 0 
0.818359 0.818359 0.959016 0.5 0 0.818359 0.959016 0.818359 0 
0 0.5 0.5 0 0 0 0.5 0 0 
0 0 0 0 0.5 0.818359 0.5 0.5 0 
0 0 0 0 0 0.5 0 0 0 
0 0 0 0 0.5 0.5 0.959016 0 0 
0 0 0.5 0.818359 0 0.5 0.959016 0.5 0.5 
0 0 0.5 0 0 0 0 0 0 
0 0 0 0.818359 0.959016 0.5 0.5 0.818359 0.5 
0 0 0 0 0.5 0.818359 0.818359 0.818359 0.818359 
0.5 0.5 0.818359 0.5 0.818359 0 0 0 0 
0.5 0 0 0 0.818359 0.5 0.5 0 0 
0 0.959016 0.818359 0 0 0 0 0 0.5 
0.5 0 0 0 0 0 0 0 0 
0.5 0.959016 0 0 0 0 0 0 0.818359 
0.818359 0.818359 0.5 1 0.5 0.5 0.959016 0 0 
0 0 0 0 0.5 0.5 0.818359 0.959016 0 
0 0.5 0.5 0 0 0 0 0.5 0.818359 
0 0 0 0.959016 0.5 0.5 0.5 0.5 0 
0.5 0 0.5 0.818359 0.818359 0.5 0 0 0 
0 0 0.818359 0.818359 0.818359 0 0 0 0 
0 0 0 1.157335 0 0 0 0 0 
0 0 0 0 0.5 0.5 0.5 0 0 
0.959016 0 0 0 0 0 0 0.959016 0.818359 
1.260724 0.959016 0.818359 0.5 0 0 0 0 0.5 
0 0 0 0.5 0 0 0 0 0 
0 0 0.5 0 0 0 0 0 0 
0.5 0 0 0 0.5 0.5 0 0.5 0.5 
0.818359 0.5 0 0 0 0.5 0.818359 0 0 
0 0 0 0.5 0.5 0.818359 0.818359 0.5 0 
0 0 0 0 0 0.5 0 0 0 
0 0 0 0.5 0.5 0.5 0 0 0 
0.818359 0 0 0 0 0 0 0 0 
0 0 0.5 0.818359 0 0 0 0 1.292173 
0 0.5 0 0.5 0.818359 0.818359 0 0 1.157335 
0 0.5 0 0 0 0 0 0 0 
0 0 0.959016 0.818359 0 0 0 0.5 0 
0 0 0.5 0.5 0 0.5 0 0 0.818359 
0 0.5 0.5 0 0.818359 0.818359 0 0.818359 0 
0.5 0.818359 0.818359 0.5 0.818359 0 0 0.5 0.5 
0.818359 0.5 0 0 0 0 0 0.5 0.959016 
0.5 0 0 0.959016 0 0 0 0 0 
0 0 0 0 0 0 0 0 0 
0 0 0 0.818359 0.818359 0.5 0.818359 0.818359 0.5 
0.959016 0.818359 0.818359 0.5 0.5 0 0 1.157335 0 
0 0 0 1.292173 0 0 0 0 0 
0 0 0.5 0.818359 0.818359 0.818359 0.5 0 0 
0 0 1.157335 0 0 0 0.5 0 0 
0 0 0.5 0.959016 0.959016 0 0 0 0 
0 0 0 0 0 0.5 0 0 0 
0.5 0.5 0 0 0 0 0 0 0 
0.5 0.5 0.959016 0 0 0 0.5 0 0 
0 0 0 0 0.959016 0 0.959016 0 0 
0 0.5 0.818359 0.818359 0.818359 0.818359 0.818359 0.5 0 
0 0 0 0 0 0 0 0 0 
0 0 0 0 0 0 0 0.5 0 
0 0.818359 0.5 0 0 0 0 0 0.959016 
0 0 0 0 0 0 0 0 0 
0.5 0.818359 0.5 0.818359 0.5 0 0 0 0 
1.260724 0.5 0.818359 0.818359 0.818359 0 0 0.5 0 
1.260724 1.292173 1.292173 0 1.260724 1.157335 0.959016 0.5 0 
0 0.818359 0.818359 0 0 0 0.5 0 0.818359 
0 0 0 0 0.818359 0.818359 0 0 0.5 
0.5 0 0 0 0.5 0 0.5 0 0.818359 
0 0.5 0 0 0 0.959016 0.5 0 0 
0 0 0 0 0 0 0 0 0 
0 0 0 0 0 0 0 0 0 
0.5 0 0 0 0.818359 0 0 0 0 
0.5 0 0.5 0 0 0 0 0.959016 0 
0 0.5 0.5 0.5 0.5 0 0 0 0.5 
0 0.5 0.5 0 0 0 0.5 0 0 
0.5 0 0.5 0.5 0 0 0 0 0.5 
0.818359 0.818359 0.818359 0.5 0.5 0 0 0.818359 0 
0 0 0 0 0 0 0 0.5 0 
0.5 0.5 0.5 0 0.5 0 0.818359 0 0 
0.5 0 0 0 0 0 0 0 0 
0 0 0 0 0 0.818359 0 0.5 0 
0 0 0.818359 0 0 0 0.5 0 0.818359 
0 0 0.5 0.5 0 0 0 0 0 
0.5 0.818359 0 0 0 0 0.5 0 0 
0.818359 0 0 0 0 0 0 0 0 
0 0.5 0 0 0 0.5 0 0.5 0.818359 
0.5 0 0 0.5 0 0 0 0.5 0 
0 0 0 0 0.5 0.818359 0.5 0 0 
0 0.818359 0.5 0.818359 0 0 0 0 0.818359 
0 0.818359 0 0 0.5 0.818359 0.5 0 0 
0 0.5 0.818359 0.818359 0.5 0 0 0.5 0 
0 0 0 0 0.5 0.5 0.5 0.818359 0 
0 0.818359 0.5 0 0 0 0 0.818359 0 
0 0 0 0 0 0.5 0.818359 0.5 0 
0 0.5 0.818359 0.818359 0.818359 0.818359 0.818359 0.818359 0 
0 0 0 0 0 0 0 0 0 
0 0.5 0.818359 0.818359 0.5 0 0 0 0 
0 0 0.5 0 0.5 0 0 0 0.5 
0 0.5 0 0.5 0 0.5 0 0.818359 0.818359 
0.818359 0.5 0.818359 0.818359 0.5 0 0 0 0.818359 
0.818359 0.818359 0.818359 0.818359 0 0 0.5 0.5 0 
0 0 0 0.5 0.818359 0 0 0 0 
0.818359 0.5 0 0 0.5 0 0.5 0.5 0.818359 
0.818359 0.818359 0.5 0 0 0 0 0 0.818359 
0.818359 0.818359 0.5 0.818359 0.5 0 0 0.5 0.5 
0.818359 0.818359 0.5 0.818359 0.5 0 0 0 0 
0 0 0 0 0 0 0 0 0 
0.818359 0 0 0 0.5 0.5 0.5 0 0.5 
0.5 0 0 0 0 0 0 0 0 
0 0.5 0 0 0 0 0.959016 0.818359 0.959016 
0.959016 0.959016 0.818359 0.818359 0.818359 0 0.818359 0 0.5 
0 0.5 0.818359 0.818359 0 0 0 0 0 
0.5 0 0 0.5 0 0 0.5 0 0.5 
0 0 0 0 0 0.5 0.5 0.5 0.5 
0.818359 0.818359 0.818359 0 0 0 0 0 0 
0 0 0.5 0.818359 0.5 0.818359 0.818359 0 0.5 
0.818359 0.818359 0.5 0 0.5 0.5 0.5 0 0 
0 0 0 0 0 0 0 0 0 
0 0 0.5 0 0.5 0.5 0.5 0 0.818359 
0.818359 0 0 0 0 0 0 0.5 0 
0 0 0 0 0.5 0 0 0 0 
0 0.5 0.818359 0.5 0.5 0.5 0.818359 0.5 0 
0 0.5 0 0 0 0.5 0.818359 0.5 0.5 
0.5 0 0 0 0 0.5 0.5 0.5 0 
0 0.818359 0.5 0.5 0 0.5 0 0.5 0.818359 
0.5 0.5 0.5 0.5 0 0 0 0 0 
0 0 0 0 0 0 0 0 0 
0 0.818359 0.5 0 0.5 0.5 0.5 1.260724 0.959016 
0.959016 0 0 0 0 0 0 0 0 
0 0 0 0 0 0 0 0 0 
0 0 0 0 0 0.5 0 0 0 
0 0 0 0 1.260724 0.5 0 0 0 
0 0 0 0 0 0 0 0.5 0 
0 0 0.5 0 0.5 0.5 0.818359 0 0 
0.959016 0.5 0.5 0.5 0 0.5 0 0.5 0 
0.5 0.818359 0.5 0.5 0 0.5 0 0.5 0 
0 0.5 0 0.5 0 0.5 0.5 0.5 0.959016 
0.818359 0.818359 0 0 0 0.959016 0.5 0 0 
0 0.959016 0 0 0 0 0 0 0 
0.5 0 0 0.5 0.5 0 0.5 0.818359 0.818359 
0.5 0.818359 0.5 0 0.5 0 0 0 0 
0 0.5 0.5 0.5 0.5 0.818359 0.5 0 0.5 
0 0 0 0 0.5 0 0 0 0 
0.5 0.5 0 0 0.818359 0 0.5 0 0 
0 0 0 0 0 0 0 1.260724 0 
0.818359 0.5 0.5 0 0 0 0 0.959016 0 
0 0 0.5 0.818359 0 0.5 0 0.5 0 
0.5 1.260724 0.818359 0.5 0.818359 0 0 0.5 0 
0.818359 0.5 0 0.5 0.818359 0.818359 0.818359 0 0.5 
0.5 0.818359 0.5 0 0 0 0 0 0.818359 
0 0 0 0 0 0 0.5 0.818359 0 
0.5 0.818359 0.818359 0.818359 0 0 0.959016 0 0 
0 1.292173 0.5 0.959016 0.818359 0.5 0.5 0 0 
0 0 0 0.959016 0 0 0 0 0 
0.5 0 0.5 0.818359 1.260724 0.818359 0.818359 0 0 
0 0 0.5 0 0.5 0.818359 0.5 0.5 0.5 
0.5 0.818359 0 0.5 0.5 0.818359 0 0 0 
0 0 0.959016 0.818359 0.959016 0 0 0 0 
0 0 0 0 0 0.959016 0 0 0 
0 0.5 0 0.5 0.818359 0 0 0 0.5 
0.818359 0.5 0 0 0 0 0.818359 0 0 
0 0 0 0 0 0 0 0 0 
0 0 0 0 0 0 0 1 0.959016 
0.818359 0.5 0.5 0.5 0 0 0 0 0 
0 0 0.818359 0 0 0 0 0 0 
0 0 0 0 0.5 0.5 0.818359 0.5 0 
0 0 0 0.5 0.818359 0.5 0 0 0.959016 
0.5 0.5 0.5 0 0 0.818359 0 0.5 0 
0.5 0.5 0.818359 0.5 0.5 0.5 0 0.959016 0 
0 0 0 0 0 0 0 0 0 
1 0 1.260724 1 0 0.959016 1.292173 0.959016 0 
0.818359 0.959016 1.157335 0.5 0 0 0 0 0.5 
0 0 0.5 0.5 0.5 0.5 0.5 0.5 0.959016 
0.5 0.818359 0 0 0 0 0 0.818359 0 
0 0 0 0 0.818359 0.5 0.5 0.818359 0.5 
0 0 0 0 0.818359 0 0 0 0 
0.5 0.818359 0.5 0.959016 0 0.5 0 0 0 
0.5 0 0.818359 0.5 0.5 0.818359 0 0 0 
0.5 0 0 0.5 0.818359 0.818359 0.5 0.818359 0.818359 
0.5 0 0.5 0.5 0.5 0 0.5 0.818359 1 
0 0.5 0 0.818359 0.5 0 0 0 0 
0.5 0 0 0 0 1.260724 0.959016 0 0 
0.959016 0.5 0 0 0.818359 0 0 0.5 0 
0 0 0 0 0 0 0 0.818359 0 
0 0.5 0.5 0.5 0.818359 0.5 0.5 0 0 
0 0 0 0 0 0 0 0 0 
0 0 0 0 0 0.818359 0 0 0 
0 0.818359 0.818359 0.5 0 0 0.818359 0.5 0.5 
0.5 0.5 0 0 0.5 0.818359 0 0 0 
0.5 0 0.5 0 0 1.292173 0.5 0 1.292173 
1.529518 0.959016 0 0 0.959016 0.818359 0.5 0.818359 0.5 
0 0 0 0 0 0 0.5 0 0 
0 0 0 0 0 0 0 0 0 
0 0 1.260724 1.260724 0.818359 0.818359 0.818359 0.5 0.818359 
0.959016 0.818359 0 0 0.818359 0 0 0 0.5 
0 0 0.5 0.5 0 0 0 0 0 
0 0 0 0 0.959016 0.5 0 0.5 0 
0 0.818359 0 0 0 0 0 0 0.5 
0.5 0 0 0.818359 0 0 0 0 0 
0 0.5 0 0 0.5 0.5 0.959016 0 1.636719 
0.5 0.959016 0 0 0.5 0 0 0 0 
0 0 0.959016 0 0 0.5 0 0 0 
0 0 0 0 0.5 0 0.5 0 0 
0 0.5 0 0 0 0 0.5 0 0.5 
0.5 0.818359 0.818359 0.818359 0 0 0 0 0 
0.818359 0 0.818359 0 0 0 0 0 0 
0 0 0 0 0 0 0 0.5 0.818359 
0.818359 0.5 0.5 0.5 0.5 0.5 0.818359 0.959016 0.5 
0.959016 1.260724 0.959016 0 0 0 0 0 0.818359 
0 0 0 0 0 0.5 0.959016 0 0 
0 0.818359 0 0 0 0 0 0 0 
0 0 0 0 0 0 0.959016 0 0 
0 0.959016 0 0 0 0.5 0.818359 0 0 
0 0.5 0.818359 0.818359 0.818359 0.959016 0 0 0 
0 0 0 0.5 0 0 0.5 0 0 
0 0 0 0 0.5 0.5 0.5 0 0.5 
0.818359 0 0.5 0 0 0.5 0 0 0.959016 
0.5 0 0.818359 0.959016 0 0.5 0.818359 0.5 0.5 
0.5 0.5 0.5 0.818359 0 0.5 0.5 0.818359 0 
0 0 0.5 0.959016 0.5 0 0.5 0.818359 0.818359 
0.5 0 0 0 0.5 0 0 0.818359 0 
0 0 0.818359 0.818359 0 0 0 0 0 
0 0 0 0 0 0 0 0 0 
0 0 0.5 0.818359 0.5 0 0.5 0 0 
0.5 0.818359 0 0.5 0.5 0.5 0.959016 0 0.818359 
0 0 0 0 0 0 0 0.5 0.818359 
0 0 0.818359 0.818359 0.5 0.5 0.818359 0.818359 0 
0 0 0 0 0.5 0.818359 0 0 0 
0 0 0 0 0 0 0 0 0 
0 0 0 0 0 0 0.959016 0 0.5 
0 0.5 0 0 0.5 0.5 0 0 0.5 
0 0.5 0 0.5 0.818359 0 0 0.5 0 
0 0 0.5 0.5 0 0 0 0 0 
0 0 0 0 0 0 0 0 0 
0 0 0 0.959016 0.5 0.818359 0.5 0.5 0 
0.5 0.5 0.5 0 0.5 0.5 0 0.959016 0 
0 0 0 0.818359 0.818359 0.959016 0.5 0.5 0.818359 
0 0 0 0.5 0 0 0 0 0 
0 0 0 0 0 0.5 0.5 0 0 
0 0 0 0 0 0.5 0.818359 0.5 0.5 
0 0 0 0 0.5 0.5 0.818359 0.959016 0.818359 
0 0 0.959016 0 0 0 0.5 0 0.818359 
0.959016 0 0 0 0.5 0 0 0 0 
0 0 0 0 0 0 0 0 0 
0 0 0.5 0 0 0 0 0 0 
0 0.818359 0 0 0 0.5 0.5 0 0.818359 
0 0 0.5 0 0 0.5 0.818359 0 0 
0 0 0 0.959016 0.818359 0 0.5 0 0 
0 0 0 0 0 0 0 0 0 
0 0 0 0 0 0 0 0.5 0.5 
1 1.260724 0.959016 0.818359 0.5 0 0 0.818359 0.959016 
0.818359 0.818359 0.5 0.5 0.5 0.5 0.5 0.5 0.5 
0 0 0 0.5 0.818359 0.5 0 0 0 
0 0 0 0.5 0.5 0 0 0 0 
0.5 0.818359 0 0 0 0 0 0 0 
0 0.5 0 0.5 0.5 0.818359 0 0 0.818359 
0.959016 0.818359 0.5 0 0.5 0.818359 0 0 0 
0 0 0.818359 0 0 0 0.818359 0.818359 0.818359 
0.5 0 0 0.5 0 0 0 0 0 
0 0 0 0 0.5 0 0 0 0 
0 0 0 0 0 0 0.959016 0 0 
0 0.818359 0 0 0 0 0 0 0.5 
0 0 0.818359 0.818359 0 0.818359 0.818359 0 0 
0 0.959016 0 0 0.5 0 0 0 0 
0 0 0 0 0 0 0 0 0 
0 0 0.959016 1.157335 1.157335 0.959016 0.818359 0.5 0.818359 
0.818359 0.818359 0.5 1.708717 1.636719 1.292173 0.959016 0.818359 0.818359 
0.5 1.5 0.5 0.818359 0.818359 0.5 0.959016 0.818359 0.818359 
0.818359 0.818359 0.5 0 0.5 0 0 0 0.5 
0.818359 0 0.5 0.5 0.818359 0.818359 0.5 0.5 0 
0 0 0 0 0.5 0 0 0 0 
0 0 0 0 0.5 0.5 0.818359 0.959016 0.5 
0.5 0 0 0.818359 0.5 0.5 0.818359 0.5 0.818359 
0.818359 0.818359 0.5 0 0 0 0 0.5 0.818359 
0.818359 0.818359 0.5 0 0.959016 0.959016 0.959016 0 0.959016 
0.959016 0.5 0 0 0 0 0.5 0.5 0 
0 0 0 0 0.818359 0.5 0.818359 0 0 
0 0 0 0.5 0.5 0.818359 0 0 0 
0 0 1.292173 0 0 0 0 0 0 
0 0 0 0 0 0 0.959016 0 0 
1.5 1.708717 1.636719 1 0.5 1.292173 0.5 0.5 0.5 
0 0 0 0.5 0.818359 0 0.5 0 0 
0 0.5 0 0.5 0.5 0.5 0 0 0 
0 0 0 0 0 0.5 0 0 0 
0 0 0.818359 0.5 0 0 0.818359 0.5 0 
0 0 0 0 0.5 0 0 0 1 
0.5 0 0 0 0.959016 0 0 0.5 0.5 
0.959016 0 0 0 0.818359 0.5 0.5 0 0 
0 0 0 0.5 0 0 0 0 0 
0.5 0.5 0 0 0 0.959016 0.818359 0 0.5 
0.5 0 0 0 0 0 0.5 0 0.5 
1.260724 0.5 0 0 0 0 0 0.5 0 
0.5 0 0 0.818359 0.5 1.708717 1.636719 1.636719 1.292173 
1.292173 0.959016 0.818359 0.5 0.5 0.5 0.959016 0 0 
0.5 0 0 0 0.5 0 0.959016 0.818359 0 
0 0 0 0.5 0 0.5 0.5 0.5 0 
0.5 0.5 0 0 0.5 0 0.818359 0 0 
0.5 0.5 0.818359 0 0.5 0.5 0 0.5 0.5 
0 0.818359 0 0.818359 0 0 0 0.5 0.5 
0 0 0.818359 0 0 0.959016 0.818359 0.818359 0 
0 0.5 0.818359 0.5 0 0 0.5 0.5 0.818359 
0 0.818359 0.818359 0.818359 0.5 0.5 0.959016 0 0 
0 0 0.5 0.959016 0.959016 0 0 0 0 
1.292173 0.959016 0.818359 0.818359 0.818359 0 0 0 0.5 
0 0.818359 0 0 0 0 0 1 0.959016 
0 0 0 0 0 0.5 0 0 0 
0.959016 0 0 0 0 0 0 0 0 
0 0.5 0 0 0 0.5 0 0 0 
0.818359 0 0.5 0 0 0 0 0 0 
0.818359 0.5 0 0.5 0.818359 0.818359 0.5 0.5 0.5 
0 0.5 0.5 0 0.818359 0 0 0 0 
0 0 0.5 0 0 0.5 0.959016 0 0 
0 0 0.959016 0 0 0.959016 0.959016 0.818359 0.818359 
0.818359 0 0.5 0.5 0.5 0.959016 0 0 0 
0 0 0.959016 1.157335 0 0.5 0.818359 0.818359 0 
0.959016 0 0 0 0 0 0 0.5 0 
0.818359 0.818359 1.157335 0.5 0.959016 0.959016 0.959016 0.818359 0.818359 
0.5 0 0.5 0 0 0 0 0 0 
0 0 0 0.959016 0.818359 0 0 0 0.5 
0 0 0 0 0.5 0.818359 0.5 0 0.818359 
0.5 0.5 0 0 0 0 0 0 0.5 
0.818359 0.818359 0.5 0.5 0.818359 0.5 0 0.5 0 
0 0 0.5 0 0 0 0.5 0 0 
0.5 0.818359 0.5 0 0.959016 0.959016 0.818359 0 0 
0 0.959016 0 0 0 0 0.5 0.5 0.5 
0 0.5 0.959016 0 0 0.818359 0 0.959016 0 
0 0.5 0 0 0 0 0 0 0 
0.5 0 0.818359 0.959016 1.260724 1.260724 0.5 1.157335 1.260724 
0.5 0.818359 0.959016 0.818359 0 0.5 0.818359 0 0 
0 0 0.959016 0.818359 0 0 0 0 0 
0 0 0.5 0 0 0 0.5 0.5 0.5 
0 0 0.5 0.818359 0.5 0 0 0 0 
0 0.5 0.818359 0.5 0.5 0 0 0 0 
0 0.5 0.5 0.5 0.5 0 0 0 0 
0.5 0 0 0 0 0 0 0 0 
0 0 0 0.5 0.818359 0.5 0 0 0 
0 0 0 0 0 0 0 0.959016 0.5 
0.818359 0.5 0.5 0 0.5 0.818359 0 0 0 
0.959016 0 0 0 0 0 0.818359 0 0 
0 0 0.5 0.818359 0 0.5 0 0 0.5 
0.5 0.818359 0 0 0 0 0 0.5 0.818359 
0.818359 0.818359 0.818359 0.818359 0.818359 0.818359 0.959016 0.959016 0.818359 
0.5 0 0 0.5 0.959016 0.818359 0.5 0.818359 0.818359 
0.818359 0.5 0.959016 0.818359 1.292173 0.5 0.818359 0.5 0.5 
0 0 0.959016 0 0.5 0.5 0 0 0.5 
0 0 0 0 0 0 0 0 0 
0.818359 0.5 0 0 0 0 0 0 0.5 
0.5 0 0 0 0.5 0 0 0 0.5 
0 0 0.5 0.5 0.5 0.5 0 0 0 
0 0.5 0 0 0 0 0.5 0 0 
0 0 0 0.5 0 0 0 0 0 
0 0 0 0 0 0 0 0.818359 0.5 
0.5 0 0 0 0.818359 0.5 0 0 0.5 
0.5 0.818359 0 0.818359 0 0.818359 0 0 0 
0 0 0 0.5 0.818359 0.818359 0.5 0 0 
0.959016 0 0.5 0.818359 0.5 0 0.959016 0.818359 0 
0.5 0 0 0.5 0.5 0 0 0.818359 0 
0.818359 0.5 0.5 0.5 0.818359 0.959016 0.818359 0.818359 0.5 
0.5 0.818359 0.818359 0 0.5 0.959016 1.292173 0.5 0.959016 
0.5 0.959016 0.5 0.5 0.5 0 0 0 0.818359 
0.818359 0.5 0.5 0.5 0 0 0 0.5 0 
0 0 0 0 0 0 0 0 0 
0 0 0 0 0 0 0 0 0 
0 0 0 0.5 0 0 0.5 0.5 0 
0 0 0.5 0.5 0 0 0 0 0 
0 0 0 0 0 0 0 0 0.5 
0 0 0 0 0 0 0 0 0 
0 0 0 0 0 0 0.818359 0.5 0.5 
0 0 0 0 0.5 0.5 0 0 0.5 
0.959016 0.818359 0.5 0 0.5 0.959016 0 0 0 
0.5 0 0 0 0 0.5 0.818359 0 0.5 
0.959016 0.959016 0.818359 0 0 0.818359 0.959016 0 0.5 
0.818359 0.818359 0 0 0 0 0 0.5 0.5 
0 0.818359 0.818359 0.818359 0.818359 0.818359 0.5 0 1 
1.260724 0 0.5 0.5 0 0.5 0.818359 0.5 0 
0 0 0 0.5 0 0 0 0 0 
0 0 0 0 0 0 0 0 0 
0.5 0 0 0 0 0 0 0 0.818359 
0 0.5 0.5 0 0 0 0 0 0 
0 0 0 0 0 0 0 0 0 
0 0.5 0 0 0 0 0 0 0 
0.5 0 0 0 0.5 0.5 0 0 0 
0 0 0 0 0 0.5 0.5 0.5 0 
0 0.5 0.5 0 0.818359 0.5 0.5 0 0 
0 0.818359 0.959016 0.959016 0 0 0 0 0.5 
0 0 0 0 0.818359 0.5 0 0 0.818359 
0.818359 0.818359 0 0 0 0.818359 0.5 0 0.959016 
0.818359 0.818359 0 0.959016 0.818359 1.157335 0.959016 0.5 0 
0 0.818359 1.260724 0.959016 0.818359 0.818359 0.818359 0.818359 0.818359 
0.5 0.959016 0.5 0.5 1.260724 0.818359 0.5 0 0 
0.818359 0.818359 0.959016 0.959016 0.5 0.818359 0.818359 0.818359 0.818359 
0 0.5 0 0 0 0 0 0 0.5 
0 0 0.5 0.5 0 0.5 0 0 0 
0 0 0 0 0 0 0 0 0 
0 0 0 0 0 0.5 0 0 0 
0.5 0 0 0 0 0 0 0 0 
0 0 0 0.5 0.5 0 0 0 0 
0 0.5 0 0 0 0.959016 0.818359 0.5 0.5 
0 0 0 0.818359 0 0.959016 0.959016 0 0 
0 0 0 0 0.818359 0 0 0 0 
0 0 0 0 0 0 0 0 0.818359 
0.818359 0.818359 0.818359 0.818359 0.818359 0.5 0 0 0 
0 0 0 0 0 0 0.818359 0 0 
0 0 0 0.818359 0.5 0.959016 0.818359 0.5 0.959016 