# vtk DataFile Version 5.1
vtk output
ASCII
DATASET POLYDATA
POINTS 9317 float
-103.155 -95.4092 502.6 -103.155 -95.4092 503.1 -103.155 -95.4092 503.6 
-102.337 -94.5908 504.1 -102.337 -93.7725 504.6 -102.337 -93.7725 505.1 
-101.519 -92.9541 505.6 -101.519 -92.9541 506.1 -101.519 -92.1357 506.6 
-101.519 -92.1357 507.1 -101.519 -91.3174 508.1 -100.7 -92.1357 507.6 
-100.7 -91.3174 508.6 -100.7 -90.499 509.1 -99.8818 -92.9541 512.6 
-99.8818 -92.9541 513.1 -99.8818 -92.1357 512.1 -99.8818 -91.3174 510.6 
-99.8818 -91.3174 511.6 -99.8818 -90.499 509.6 -99.8818 -90.499 510.1 
-99.8818 -90.499 511.6 -99.8818 -89.6807 510.1 -99.0635 -92.1357 511.1 
-99.0635 -89.6807 511.1 -99.0635 -88.8623 510.6 -99.0635 -88.0439 511.1 
-98.2451 -87.2256 510.6 -98.2451 -87.2256 511.6 -98.2451 -86.4072 504.1 
-98.2451 -86.4072 504.6 -98.2451 -86.4072 505.1 -98.2451 -86.4072 512.1 
-98.2451 -86.4072 512.6 -98.2451 -85.5889 506.1 -97.4268 -86.4072 505.6 
-97.4268 -86.4072 510.1 -97.4268 -86.4072 513.1 -97.4268 -86.4072 513.6 
-97.4268 -85.5889 506.6 -97.4268 -85.5889 507.1 -96.6084 -86.4072 514.1 
-96.6084 -85.5889 507.6 -96.6084 -85.5889 509.6 -95.79 -86.4072 514.6 
-95.79 -85.5889 508.1 -95.79 -85.5889 508.6 -95.79 -85.5889 509.1 
-94.9717 -86.4072 515.1 -94.9717 -84.7705 509.6 -94.1533 -86.4072 515.6 
-94.1533 -83.9521 510.1 -93.335 -85.5889 516.1 -93.335 -83.1338 510.6 
-93.335 -83.1338 511.1 -92.5166 -85.5889 516.1 -92.5166 -82.3154 511.6 
-91.6982 -84.7705 516.1 -91.6982 -82.3154 512.1 -91.6982 -61.8564 539.1 
-91.6982 -61.8564 539.6 -91.6982 -61.8564 540.1 -91.6982 -61.0381 537.1 
-90.8799 -92.9541 535.1 -90.8799 -92.9541 535.6 -90.8799 -83.9521 516.1 
-90.8799 -82.3154 512.1 -90.8799 -61.0381 537.6 -90.8799 -61.0381 538.1 
-90.8799 -61.0381 538.6 -90.8799 -60.2197 536.6 -90.8799 -59.4014 535.6 
-90.8799 -59.4014 536.1 -90.0615 -92.1357 536.1 -90.0615 -85.5889 564.1 
-90.0615 -83.9521 516.1 -90.0615 -82.3154 512.6 -90.0615 -81.4971 562.6 
-90.0615 -79.042 561.1 -90.0615 -60.2197 538.6 -89.2432 -92.1357 536.1 
-89.2432 -85.5889 564.1 -89.2432 -83.1338 515.1 -89.2432 -83.1338 515.6 
-89.2432 -82.3154 513.1 -89.2432 -81.4971 562.6 -89.2432 -79.042 561.1 
-89.2432 -73.3135 557.1 -89.2432 -73.3135 557.6 -89.2432 -72.4951 556.6 
-89.2432 -60.2197 538.6 -88.4248 -116.687 527.1 -88.4248 -116.687 527.6 
-88.4248 -115.868 528.1 -88.4248 -115.868 528.6 -88.4248 -115.868 529.1 
-88.4248 -115.868 529.6 -88.4248 -115.05 530.1 -88.4248 -92.1357 536.6 
-88.4248 -86.4072 565.6 -88.4248 -85.5889 564.6 -88.4248 -84.7705 564.1 
-88.4248 -83.9521 564.1 -88.4248 -83.1338 564.1 -88.4248 -82.3154 513.6 
-88.4248 -82.3154 514.6 -88.4248 -82.3154 563.6 -88.4248 -81.4971 563.1 
-88.4248 -80.6787 562.6 -88.4248 -79.8604 562.6 -88.4248 -79.042 561.6 
-88.4248 -79.042 562.1 -88.4248 -78.2236 561.1 -88.4248 -77.4053 560.6 
-88.4248 -76.5869 560.1 -88.4248 -75.7686 559.6 -88.4248 -74.9502 559.6 
-88.4248 -73.3135 558.1 -88.4248 -59.4014 539.1 -87.6064 -115.05 530.6 
-87.6064 -115.05 531.1 -87.6064 -115.05 531.6 -87.6064 -114.231 532.1 
-87.6064 -105.229 516.6 -87.6064 -105.229 517.1 -87.6064 -99.501 568.6 
-87.6064 -91.3174 537.1 -87.6064 -85.5889 565.1 -87.6064 -82.3154 514.1 
-87.6064 -81.4971 564.1 -87.6064 -78.2236 562.6 -87.6064 -76.5869 561.1 
-87.6064 -74.1318 559.1 -87.6064 -73.3135 558.6 -87.6064 -72.4951 558.1 
-87.6064 -59.4014 539.6 -87.6064 -58.583 540.6 -86.7881 -113.413 532.6 
-86.7881 -113.413 533.1 -86.7881 -112.595 533.6 -86.7881 -112.595 534.1 
-86.7881 -111.776 535.1 -86.7881 -111.776 535.6 -86.7881 -111.776 536.1 
-86.7881 -111.776 541.6 -86.7881 -111.776 542.1 -86.7881 -111.776 542.6 
-86.7881 -111.776 543.1 -86.7881 -111.776 543.6 -86.7881 -110.958 536.6 
-86.7881 -110.958 540.6 -86.7881 -110.958 541.1 -86.7881 -110.14 537.1 
-86.7881 -110.14 539.6 -86.7881 -110.14 540.1 -86.7881 -109.321 537.6 
-86.7881 -109.321 539.1 -86.7881 -108.503 538.1 -86.7881 -108.503 538.6 
-86.7881 -107.685 538.6 -86.7881 -106.866 538.6 -86.7881 -104.411 517.6 
-86.7881 -100.319 570.1 -86.7881 -99.501 570.1 -86.7881 -98.6826 569.1 
-86.7881 -98.6826 569.6 -86.7881 -97.8643 570.1 -86.7881 -91.3174 477.6 
-86.7881 -91.3174 537.6 -86.7881 -90.499 477.6 -86.7881 -89.6807 477.6 
-86.7881 -85.5889 566.1 -86.7881 -85.5889 566.6 -86.7881 -84.7705 565.6 
-86.7881 -83.9521 565.6 -86.7881 -83.1338 565.1 -86.7881 -82.3154 564.6 
-86.7881 -81.4971 514.6 -86.7881 -80.6787 564.1 -86.7881 -77.4053 562.6 
-86.7881 -76.5869 561.6 -86.7881 -75.7686 561.1 -86.7881 -74.9502 561.1 
-86.7881 -74.1318 560.1 -86.7881 -73.3135 559.6 -86.7881 -71.6768 558.1 
-86.7881 -70.8584 558.1 -86.7881 -58.583 540.1 -86.7881 -58.583 541.1 
-86.7881 -58.583 545.1 -86.7881 -57.7646 541.6 -86.7881 -57.7646 542.1 
-86.7881 -57.7646 542.6 -86.7881 -57.7646 543.1 -86.7881 -57.7646 543.6 
-86.7881 -57.7646 544.1 -85.9697 -111.776 534.6 -85.9697 -106.048 538.6 
-85.9697 -105.229 539.1 -85.9697 -104.411 517.6 -85.9697 -104.411 539.6 
-85.9697 -103.593 539.6 -85.9697 -101.138 570.1 -85.9697 -97.0459 570.1 
-85.9697 -92.9541 477.6 -85.9697 -92.1357 477.6 -85.9697 -90.499 538.1 
-85.9697 -88.8623 478.1 -85.9697 -88.0439 478.6 -85.9697 -87.2256 479.1 
-85.9697 -86.4072 479.6 -85.9697 -85.5889 567.1 -85.9697 -82.3154 565.6 
-85.9697 -81.4971 515.1 -85.9697 -79.8604 564.1 -85.9697 -76.5869 562.1 
-85.9697 -74.1318 561.1 -85.9697 -73.3135 560.6 -85.9697 -64.3115 552.1 
-85.9697 -64.3115 553.1 -85.9697 -63.4932 551.1 -85.9697 -63.4932 551.6 
-85.9697 -62.6748 550.6 -85.9697 -59.4014 547.6 -85.9697 -59.4014 548.1 
-85.9697 -58.583 545.6 -85.9697 -58.583 546.1 -85.9697 -57.7646 544.6 
-85.1514 -103.593 518.1 -85.1514 -102.774 540.1 -85.1514 -101.956 540.1 
-85.1514 -101.956 570.6 -85.1514 -97.0459 570.6 -85.1514 -97.0459 571.1 
-85.1514 -97.0459 571.6 -85.1514 -94.5908 478.1 -85.1514 -93.7725 477.6 
-85.1514 -90.499 570.1 -85.1514 -89.6807 538.1 -85.1514 -86.4072 568.6 
-85.1514 -85.5889 480.1 -85.1514 -85.5889 567.6 -85.1514 -85.5889 568.1 
-85.1514 -84.7705 480.6 -85.1514 -82.3154 566.1 -85.1514 -81.4971 515.6 
-85.1514 -79.8604 564.6 -85.1514 -75.7686 562.6 -85.1514 -74.9502 561.6 
-85.1514 -72.4951 561.1 -85.1514 -65.1299 552.6 -85.1514 -65.1299 553.6 
-85.1514 -61.8564 550.1 -85.1514 -61.0381 550.1 -85.1514 -59.4014 548.6 
-85.1514 -58.583 546.6 -85.1514 -58.583 547.1 -84.333 -102.774 518.6 
-84.333 -102.774 571.1 -84.333 -102.774 571.6 -84.333 -101.138 540.1 
-84.333 -97.8643 572.1 -84.333 -97.8643 572.6 -84.333 -97.8643 573.1 
-84.333 -96.2275 571.6 -84.333 -95.4092 478.6 -84.333 -95.4092 571.6 
-84.333 -94.5908 571.6 -84.333 -93.7725 571.6 -84.333 -92.9541 571.6 
-84.333 -92.1357 571.1 -84.333 -91.3174 570.6 -84.333 -89.6807 538.6 
-84.333 -89.6807 570.1 -84.333 -88.8623 570.1 -84.333 -88.0439 569.6 
-84.333 -87.2256 569.1 -84.333 -84.7705 481.1 -84.333 -84.7705 568.6 
-84.333 -83.9521 481.6 -84.333 -81.4971 566.6 -84.333 -80.6787 515.6 
-84.333 -79.042 565.1 -84.333 -76.5869 564.1 -84.333 -75.7686 563.1 
-84.333 -75.7686 563.6 -84.333 -74.9502 562.6 -84.333 -74.1318 562.1 
-84.333 -73.3135 516.1 -84.333 -73.3135 561.6 -84.333 -71.6768 561.1 
-84.333 -70.8584 561.1 -84.333 -65.9482 554.1 -84.333 -60.2197 549.6 
-84.333 -60.2197 550.6 -84.333 -59.4014 549.1 -83.5146 -109.321 571.1 
-83.5146 -108.503 571.6 -83.5146 -107.685 572.1 -83.5146 -106.866 572.6 
-83.5146 -106.048 572.6 -83.5146 -105.229 572.6 -83.5146 -104.411 572.6 
-83.5146 -103.593 572.1 -83.5146 -102.774 519.1 -83.5146 -100.319 540.6 
-83.5146 -99.501 541.1 -83.5146 -95.4092 479.1 -83.5146 -95.4092 479.6 
-83.5146 -92.1357 571.6 -83.5146 -89.6807 538.6 -83.5146 -88.0439 570.1 
-83.5146 -83.9521 482.1 -83.5146 -83.9521 568.1 -83.5146 -83.1338 482.6 
-83.5146 -82.3154 567.1 -83.5146 -80.6787 515.6 -83.5146 -79.8604 541.1 
-83.5146 -79.042 565.1 -83.5146 -78.2236 564.6 -83.5146 -77.4053 564.1 
-83.5146 -73.3135 515.6 -83.5146 -70.04 549.1 -83.5146 -65.9482 554.6 
-83.5146 -65.9482 555.1 -83.5146 -60.2197 551.1 -83.5146 -58.583 548.6 
-83.5146 -49.5811 479.1 -83.5146 -49.5811 479.6 -82.6963 -106.866 574.1 
-82.6963 -106.048 573.6 -82.6963 -105.229 572.1 -82.6963 -105.229 573.1 
-82.6963 -104.411 573.1 -82.6963 -103.593 573.6 -82.6963 -101.956 519.1 
-82.6963 -98.6826 541.1 -82.6963 -97.0459 481.6 -82.6963 -97.0459 482.1 
-82.6963 -96.2275 480.1 -82.6963 -96.2275 480.6 -82.6963 -96.2275 481.1 
-82.6963 -95.4092 573.1 -82.6963 -94.5908 573.1 -82.6963 -92.9541 573.1 
-82.6963 -92.1357 572.1 -82.6963 -92.1357 572.6 -82.6963 -91.3174 571.6 
-82.6963 -90.499 571.6 -82.6963 -89.6807 571.6 -82.6963 -88.8623 539.1 
-82.6963 -88.0439 570.6 -82.6963 -88.0439 571.1 -82.6963 -83.1338 483.1 
-82.6963 -83.1338 567.6 -82.6963 -81.4971 567.1 -82.6963 -79.8604 516.1 
-82.6963 -79.8604 541.6 -82.6963 -79.8604 542.1 -82.6963 -79.8604 566.1 
-82.6963 -79.8604 566.6 -82.6963 -79.042 565.6 -82.6963 -73.3135 515.6 
-82.6963 -69.2217 548.6 -82.6963 -65.9482 555.6 -82.6963 -60.2197 551.6 
-82.6963 -57.7646 548.1 -82.6963 -49.5811 480.1 -82.6963 -49.5811 480.6 
-81.8779 -107.685 574.1 -81.8779 -106.048 489.1 -81.8779 -105.229 488.6 
-81.8779 -105.229 571.6 -81.8779 -104.411 487.6 -81.8779 -104.411 488.1 
-81.8779 -103.593 487.1 -81.8779 -102.774 486.6 -81.8779 -102.774 574.1 
-81.8779 -101.138 519.6 -81.8779 -98.6826 483.1 -81.8779 -98.6826 483.6 
-81.8779 -97.8643 482.6 -81.8779 -97.8643 541.1 -81.8779 -93.7725 573.1 
-81.8779 -92.1357 573.1 -81.8779 -88.8623 571.6 -81.8779 -88.0439 539.6 
-81.8779 -87.2256 571.1 -81.8779 -84.7705 569.6 -81.8779 -83.9521 569.1 
-81.8779 -83.1338 568.6 -81.8779 -82.3154 483.6 -81.8779 -82.3154 568.1 
-81.8779 -80.6787 567.1 -81.8779 -79.8604 516.1 -81.8779 -79.042 542.6 
-81.8779 -73.3135 515.6 -81.8779 -69.2217 548.1 -81.8779 -66.7666 556.6 
-81.8779 -65.9482 556.1 -81.8779 -60.2197 552.1 -81.8779 -58.583 547.6 
-81.8779 -56.9463 548.1 -81.8779 -49.5811 481.1 -81.8779 -49.5811 481.6 
-81.0596 -108.503 574.6 -81.0596 -106.866 489.6 -81.0596 -104.411 571.1 
-81.0596 -102.774 574.6 -81.0596 -101.956 486.1 -81.0596 -101.138 485.1 
[...]
POINT_DATA 9317
FIELD FieldData 5
Pressure 1 9317 double
3339.6065 3344.99961 3345.33668 3346.18658 3346.83309 3346.94467 3347.22601 3347.33759 3347.5516 
3347.66318 3348.7271 3347.8772 3349.37361 3350.02012 3347.55983 3347.44055 3347.7886 3348.44655 
3348.01738 3350.66663 3348.60978 3348.07332 3351.55971 3348.23197 3351.98087 3352.04237 3352.47102 
3352.62985 3352.98196 3330.08947 3330.20798 3330.32648 3353.37062 3353.98275 3330.85259 3330.55378 
3352.78867 3372.76834 3372.98433 3331.07988 3336.45379 3373.39859 3337.098 3352.84124 3392.18418 
3347.40533 3352.77923 3352.85335 3393.35828 3353.07529 3393.74694 3354.08099 3394.25787 3355.08669 
3361.46841 3394.58953 3361.82326 3395.05856 3374.06362 2726.24333 2726.1517 2726.06007 2726.2038 
3041.22606 3041.33171 3396.47546 3384.50872 2726.37952 2726.47113 2726.47437 2725.97279 2725.70546 
2725.79707 3041.59811 1571.56935 3396.80711 3384.77864 1571.08401 1570.65493 2726.69397 3041.77104 
1571.63525 3397.1075 3397.0222 3397.01901 1571.14988 1570.72077 1569.97356 1570.01375 1569.89647 
2726.99389 3161.46402 3161.57502 3161.78793 3161.89893 3162.00994 3162.12094 3162.33385 3041.97368 
1571.74746 1571.70821 1571.64039 1571.58616 1571.53192 3397.27225 3397.26216 1571.46836 1571.24773 
1571.12494 1571.00254 1570.7907 1570.85909 1570.72947 1570.67545 1570.59067 1570.50589 1570.43355 
1570.09083 2727.45593 3162.54675 3162.65776 3162.76876 3162.98167 3633.91011 3633.91011 1577.6277 
3042.24008 1571.849 3397.34891 1571.67485 1570.84295 1570.71589 1570.32209 1570.16792 1570.09083 
2727.80741 2728.62092 3163.26156 3168.29524 3168.89867 3169.00281 3169.46515 3169.49667 3169.5282 
3159.24987 3159.13899 3159.0281 3158.91722 3158.80633 3169.58866 3159.57344 3159.46255 3169.63325 
3159.89701 3159.78612 3169.67784 3169.54149 3169.7383 3169.74103 3169.81716 3169.96059 3633.91011 
1578.61513 1578.22621 1577.7299 1577.77043 1577.39241 3935.16017 3051.42955 3937.11109 3937.75689 
1572.39638 1572.53234 1572.13562 1572.09916 1572.05643 1571.89157 3397.60435 1571.66546 1570.82813 
1570.74756 1570.7148 1570.68606 1570.48271 1570.41332 1569.9978 1569.93202 2728.26945 2728.9724 
2731.05362 2729.32387 2729.50712 2729.69036 2729.87361 2730.05685 2730.2401 3169.2654 3170.16343 
3170.33152 3633.91011 3170.4996 3170.64303 1579.16516 1576.9362 3930.45024 3932.40116 3052.18457 
3938.17571 3938.49429 3938.81287 3939.56968 1572.7931 1572.21698 3397.87456 1571.65606 1570.81199 
1570.64543 1570.57394 2779.91056 2780.85103 2771.09589 2779.55286 2770.0821 2732.5851 2732.76835 
2731.40509 2731.58834 2730.59157 3633.91011 3170.86399 3171.20472 1579.76432 1576.55817 1576.36108 
1576.25988 3925.40499 3927.69123 1574.61972 3063.27436 1573.49174 3940.56458 1573.05386 1573.18981 
3940.88317 1572.33911 3398.14478 1571.64828 1570.88056 1570.69515 1570.57119 2780.38079 2781.32126 
2768.74936 2767.88425 2733.11982 2731.93981 2732.12306 3633.91011 1580.36348 1580.60111 3171.68658 
1576.15785 1576.11739 1576.07692 1576.1193 3922.39951 1575.86294 1575.60659 1575.35024 1575.09388 
1574.93795 1574.80047 3072.46382 1574.4538 1574.33648 1574.19059 1573.88866 3941.11225 1573.13569 
3941.34134 1572.49966 3398.91942 1571.63804 1571.20268 1570.95164 1571.03767 1570.85771 1570.74486 
3406.24781 1570.66983 1570.47811 1570.41229 2781.7915 2757.19173 2757.25298 2749.05807 1605.24818 
1605.32828 1608.9607 1609.18772 1609.38145 1609.42961 1609.06306 1607.77131 3633.91011 3171.90754 
3172.30682 3921.6427 3921.24813 1574.91951 3072.95393 1574.34662 3941.57043 1573.08157 3941.79952 
1572.66021 3399.46718 3050.03831 1571.67764 1571.56681 1571.40181 3406.24781 3082.91483 2782.1492 
2782.3357 2757.07464 2759.31798 3340.88376 3341.00274 1615.47991 1615.56082 1609.21443 1615.64174 
1616.01147 1616.70839 3633.91011 3172.78868 3918.93575 3918.54117 3920.25323 3920.08713 3919.69255 
1574.17302 1574.23911 1574.61292 1574.81521 1574.74333 1574.84877 1574.82738 1574.80599 3073.20386 
1574.51106 1574.57904 3942.02861 1573.02745 1572.47048 3400.31103 3050.24171 3050.34775 1571.99208 
1572.07405 1571.83486 3406.24781 3083.18591 2798.55643 2756.89631 2759.54423 3341.23096 3341.34995 
1615.38226 3897.33909 3898.09589 1605.58114 3899.24728 3898.8527 3900.00408 3902.29032 1617.62455 
3633.91011 3913.24945 3912.05749 3915.53569 3172.99152 1574.33258 1574.73588 1574.77575 3074.88726 
1574.55583 1574.2872 1573.97166 1573.65611 3942.69185 1573.34056 1572.28074 3400.85878 3050.61514 
3406.24781 3092.5367 2799.90582 2799.57023 2756.71797 2759.30951 2778.73376 3341.57817 3341.69716 
1615.27588 3894.3336 1605.47581 1618.32146 3905.2958 3907.97661 3907.58203 3908.29519 3633.91011 
3909.052 3633.91011 3173.21249 3051.80924 1573.87238 1574.12901 1574.84985 1574.93044 1575.02488 
1574.90031 3075.97999 1574.5753 1574.58794 1574.60275 3944.97809 1573.2472 1573.16983 3401.08937 
3058.4859 3406.24781 3093.24198 3093.82641 2800.24142 2800.76998 2756.53963 2759.07479 2756.3613 
2780.04025 2780.88831 3341.92538 3342.04436 3342.16335 3246.19038 3245.01156 1615.20684 3857.75387 
3838.68238 1619.1625 3633.91011 3173.31562 3051.98294 1573.97416 1575.31278 3076.22993 1575.00143 
3945.64133 3401.31995 3059.06238 3406.24781 3094.01987 2801.78377 2801.95874 2758.84007 2782.1948 
3342.39157 3342.51055 3342.62954 3246.74517 3246.85989 3245.97034 3246.41042 3246.52514 3245.63558 
3245.7503 3245.30082 3245.41554 1615.12592 1615.08373 3837.68748 1619.85941 1620.22276 3633.91011 
3173.43279 3052.25053 1573.89673 1576.63456 1576.70083 1575.57707 3076.39217 1575.76395 3050.97631 
1575.83881 1575.81457 1575.43572 1575.79032 1575.76608 3945.81026 3401.64604 3066.93314 3406.24781 
3094.11815 2802.39991 3288.59086 3283.32469 3282.99556 3277.72939 3277.50665 3277.39052 2783.04286 
3250.25152 3250.29692 3342.92956 3247.41469 3247.52941 3247.64413 3247.07993 3247.19465 1614.97736 
3837.04167 2984.32093 2984.88151 2985.44209 1620.91968 3633.91011 3633.91011 3173.54995 3052.49617 
1576.79455 3076.6421 3051.46843 1575.93791 1576.1685 3946.03233 3401.87662 3067.1786 3406.24781 
3094.28323 2818.62065 2818.80714 3289.44528 3289.22254 3289.10641 3288.88367 3277.09771 3276.98158 
3250.384 2784.34935 3250.32215 3250.1153 3343.15778 3348.55346 3353.94915 3247.93339 3248.04812 
3248.16284 3834.9283 1614.79007 3835.0365 3823.90263 1614.87099 2986.17902 2986.7396 2987.21796 
2999.24763 1621.61659 2999.44542 2999.64321 2999.84101 3000.0388 3633.91011 3173.65751 3052.74181 
1576.88827 3052.22656 3076.80434 1576.23146 1576.31726 1576.37625 1576.40137 3950.20365 3950.03755 
3949.71896 3949.40038 3949.23428 3949.06818 3948.90208 3946.49959 3946.33349 3946.03233 3948.5835 
3948.4174 3948.2513 3402.10721 3067.35217 3406.24781 3094.98851 2819.16485 3289.7381 3250.91083 
3250.49712 3276.68876 2785.5487 2785.03632 3354.24917 3359.64485 3359.75648 3359.80348 3248.4521 
3248.56682 3248.68154 3834.23986 3834.51879 3834.79772 3822.99381 2999.00894 1622.3135 3011.82978 
3011.98813 3012.13246 3012.05065 3012.00143 3006.83889 3006.73487 3633.91011 3173.8164 1585.88724 
3052.98746 1576.98199 3061.45375 3077.05428 1576.52501 3950.95466 3950.78856 3950.62246 1576.56603 
3946.03233 3947.49449 3402.33779 3076.57573 3406.24781 3095.22198 2840.48864 3289.96084 3272.41523 
3252.41903 2787.52875 3360.01759 3360.12922 3360.24086 3248.90158 3833.81016 3833.63974 3822.30248 
1623.01042 3012.28079 3011.75537 3007.0384 3006.53536 3006.43134 3006.32732 1586.64114 3633.91011 
3173.95983 1585.98192 3053.2331 1585.71089 1585.46802 1577.07571 3061.62739 1577.14198 1577.20825 
3077.2444 1576.95511 3951.37347 1577.06193 1576.79889 3946.03233 3946.03233 3402.56837 3946.03233 
3946.03233 3076.76656 3406.24781 3095.38707 2856.70938 3300.06151 3272.94738 3361.09116 3361.2028 
3361.31443 2788.81405 3249.08934 3828.40982 3825.68312 3825.35625 3616.21709 3616.05099 3615.88489 
3615.49032 3820.91982 3821.61115 1623.70733 3006.12781 3006.02379 3005.91977 3012.51972 3012.39016 
1586.73589 3013.64575 3633.91011 3174.44168 1586.08505 3053.43665 1585.12455 3061.87295 3077.3127 
1577.30197 1577.25908 1577.37963 3952.36837 1577.22649 1576.95589 1576.84229 3946.03233 3946.03233 
3402.83859 3946.03233 3076.9294 3946.03233 3946.03233 3406.24781 3095.97149 2878.03317 3300.24465 
3273.52706 3363.14879 3362.16474 3362.50197 2809.37874 3249.37861 3820.12633 3637.23736 3618.16587 
3616.9739 3578.91059 3559.8391 3820.011 1624.6235 3005.72026 3005.61624 3005.51222 3005.4082 
3005.30418 1586.83064 3174.78241 3037.33031 3633.91011 3037.66934 1586.44811 3633.91011 3038.06665 
3053.68229 1584.78108 3062.07643 3038.23535 3077.54213 3952.79889 1577.78569 1577.74679 3946.03233 
3946.03233 1576.74859 3946.03233 3946.03233 3403.1088 3946.03233 3946.03233 3077.42132 3946.03233 
3946.03233 3946.03233 3406.24781 3096.20496 2894.25391 2902.71087 2903.23944 2919.97226 3300.28446 
3299.81409 3363.79561 2811.43013 2810.07738 3247.7185 3247.83334 3248.05361 3248.27387 3248.38872 
3248.50356 3248.72383 3248.94409 3249.66787 3254.87012 3819.20434 3800.13285 3798.94088 3705.58857 
3686.51708 3685.32511 3511.75134 3492.67985 1625.53966 3005.10467 3005.00065 3004.89663 3174.92584 
1586.92539 3633.91011 3061.75121 3053.92794 3062.71209 3062.93506 3062.8399 3050.30061 1584.43761 
3050.87423 1584.0899 3078.11648 3952.96782 1578.15844 1578.26708 3946.03233 3946.03233 3403.37902 
1576.6549 3946.03233 3946.03233 3086.64489 3946.03233 3946.03233 3946.03233 3946.03233 3406.24781 
3096.39842 2903.68061 2903.75426 2920.22505 3300.3311 3300.22779 2869.83701 3364.44243 3364.77966 
2840.58264 2841.50582 2812.25145 2810.60882 3249.23366 3254.44137 3255.06566 3255.68994 3256.10304 
3256.1937 3256.6068 3256.82217 3762.36114 3743.28966 3742.89508 3742.72898 3742.56288 3742.16831 
3490.39362 3489.20165 1693.01562 1652.95874 1650.97777 1648.9968 1647.01582 1645.03485 1626.23658 
1642.71339 3004.69712 3004.5931 3004.48908 3175.4077 1587.45829 1586.96653 3633.91011 3063.15835 
3063.73526 3063.16316 3062.73482 1584.54245 3057.46309 3051.54685 3051.44785 1583.14561 3946.03233 
3946.03233 3078.27871 3953.11197 3946.03233 3946.03233 3946.03233 1578.5645 1578.39639 3946.03233 
3946.03233 3403.64923 3946.03233 3946.03233 3946.03233 3946.03233 3946.03233 3946.03233 3946.03233 
1576.5612 3946.03233 3086.89035 3406.24781 3097.16671 2904.08986 2920.41735 3300.39242 2875.02696 
3365.42647 2805.04555 3256.94722 1687.45055 1687.52489 3486.91542 1687.59923 1687.67357 1687.74791 
1687.82225 1697.78308 1642.25819 1588.79636 3175.74842 3633.91011 1586.27109 1585.69481 3063.86257 
1585.19695 3063.79378 3063.6284 3063.46302 3062.65489 3062.61321 3062.51421 3057.72916 3057.2607 
3052.47565 3052.37665 3052.33498 3051.83573 3051.73673 3946.03233 1582.20132 3953.27371 3078.46884 
1581.41884 3953.24443 3953.27371 1579.36155 3946.03233 3946.03233 3946.03233 1578.51509 3946.03233 
3946.03233 3946.03233 3946.03233 3946.03233 3946.03233 3946.03233 3946.03233 3404.00446 3087.09375 
1576.4675 1576.40125 3406.24781 3097.75113 2923.66494 2923.46684 2920.67015 3300.57514 2875.79751 
2876.19484 3366.27678 2804.958 3257.05849 3484.62918 3448.04945 3428.97796 3427.78599 3294.18386 
3316.99513 3297.92364 3297.52906 3297.36296 3297.19687 3297.03077 3296.86467 3296.47009 1698.68929 
1641.84031 1641.54483 1589.81421 3176.27332 3633.91011 1585.59173 3064.01533 3946.03233 3052.08535 
3953.27206 3953.28328 3953.27371 3079.22387 1580.3902 3953.27371 1579.14894 1578.59389 1578.52235 
3404.8483 3087.29715 3406.24781 3097.94459 2958.82819 2923.16165 2920.86245 3300.92936 2864.13785 
2864.29788 2864.45791 2864.61794 2876.51565 2877.27775 3366.4909 2804.96796 2804.91804 3257.42052 
3287.1877 3425.49976 3289.47393 3388.92002 3369.84853 3368.65657 3291.42485 3366.37033 3365.97576 
3365.80966 3365.64356 3365.47746 3365.08288 1699.5955 1641.12696 1590.68278 3176.67261 3633.91011 
3946.03233 1585.49711 3064.49515 1585.4302 3953.27206 3953.27371 3953.27371 3953.27371 3953.27371 
3953.27371 3953.27371 3953.27371 3953.27371 3079.38611 3953.4003 3953.27371 3953.27371 3953.27371 
3953.27371 3953.27371 3953.54445 1578.82549 1578.91734 1578.42845 3405.39606 3087.47071 3953.96985 
3406.24781 3098.01409 2960.49996 2922.73542 2922.85646 2921.11525 3301.74794 2914.11309 3366.58103 
2804.57936 2807.19151 3257.83361 3284.18221 1700.7868 1640.70909 1640.36282 1640.25081 1592.92898 
1591.91112 3177.15447 3633.91011 3946.03233 3064.83444 3953.27206 3953.27371 3953.27371 3079.4544 
3953.74831 3405.66628 3087.64428 3953.96985 3406.24781 3098.20755 2997.30363 2962.17172 2922.43023 
2922.07704 2922.19808 2921.30755 3302.37062 2915.18094 2915.60445 3366.67116 2788.20942 2823.14818 
3258.00751 3281.4232 1701.8804 1703.0141 1702.91795 1702.80528 1702.70913 1635.39246 1635.43556 
1640.10356 1593.94683 3177.49519 3953.27206 3633.91011 3953.27206 3953.27206 3065.12034 3953.27371 
3080.99975 3953.91724 3087.84768 3405.99237 3953.96985 3406.24781 3406.24781 3098.40101 2997.5651 
2997.33497 2921.77185 2921.5397 3305.40001 3305.26335 2921.25515 3304.64067 2921.2153 2916.67229 
3366.74808 2787.73486 2823.39931 3258.4206 3248.2578 3230.80652 3231.97092 3233.33544 1706.0616 
1703.0717 1703.25837 1703.16222 1635.1445 1635.22716 1702.56101 1635.30981 1642.87635 3177.63862 
3953.27206 3633.91011 3065.33116 3953.27371 3081.2024 3954.12109 3088.05108 3921.81978 3921.96443 
3922.10907 3953.96985 3406.24781 3920.96375 3921.1084 3921.25305 3921.39769 3921.54234 3920.39702 
3920.54167 3920.68631 3919.97493 3920.11958 3919.55285 3919.6975 3919.27541 3098.59447 3017.02053 
3918.99797 3305.66213 2921.16291 2917.74014 2918.16365 2918.58715 3366.83821 3366.8852 2787.42681 
2823.65044 3259.0553 3258.96366 3258.66746 3258.62209 3258.51432 3248.52368 3226.4342 3229.01272 
3228.3013 3229.07787 3232.55887 1706.1373 1703.65833 1702.42503 1701.19805 3953.27206 3178.12048 
3633.91011 3065.70702 3953.27371 3953.27371 3081.40505 3954.40946 3954.29002 3088.22465 3922.4738 
3929.03313 3929.44309 3936.00243 3936.14707 3953.96985 3406.39108 3098.68795 3019.25602 3918.63325 
3305.88581 2921.12305 2919.655 3366.97534 2787.11876 2824.2978 3259.13755 3258.87415 3225.37376 
3224.9532 3227.24086 3230.09875 3230.76142 3231.53799 1706.24435 1704.99775 1702.28906 1702.17639 
3953.27206 3178.51977 3633.91011 3065.99292 3953.27371 3953.27371 3081.57797 3954.71062 3936.51179 
3939.28336 3088.39821 3953.96985 3406.53436 3098.8792 3098.61968 3098.56955 3041.04066 3040.79583 
3040.55099 3020.16056 3918.26853 3917.99109 3306.41717 2921.07066 2920.72285 3367.40357 3367.18945 
2786.6442 2824.94516 3259.36019 3223.89276 1706.36096 1706.40721 1706.72097 1706.87238 1707.02379 
1707.1752 1706.33717 1753.78123 3953.27206 3953.27206 3178.6632 3633.91011 3066.36878 3081.82252 
3954.71062 3954.93269 3936.78923 3941.77749 3088.57178 3953.96985 3406.63075 3099.09484 3097.89244 
3078.42224 3041.75509 3041.51026 3021.34968 3917.62637 3307.16861 2921.33345 3367.61768 2777.58513 
2777.49121 2786.28321 2782.02424 2777.76527 2825.70379 3386.26542 3259.58283 3223.0861 1706.42012 
1706.50685 1707.38932 1707.56675 1755.87484 3953.27206 3953.27206 3178.78406 3633.91011 3067.61042 
3082.02517 3954.71062 3955.07684 3937.05767 3941.83249 3088.74535 3953.96985 3406.67873 3099.37832 
3043.08686 3042.84203 3042.37243 3077.33963 3022.25423 3307.39229 2922.26563 3006.64307 3367.8318 
2786.04546 2826.46241 3386.26542 3386.26542 3386.26542 3259.80547 3222.27944 3221.85887 1706.30348 
1709.13942 1829.19903 3953.27206 1754.6287 3179.10529 3633.91011 3070.95611 3070.46368 3954.71062 
3082.22782 3937.35008 3955.29891 3944.32662 3955.528 3089.01274 3953.96985 3406.71768 3099.88279 
3099.67076 3043.7042 3023.02611 3076.25702 3307.65442 3007.71638 2957.29371 3006.84277 3367.95029 
2785.82721 2838.60045 3386.26542 3260.02812 3221.05221 1710.16028 1831.91338 1830.68338 3953.27206 
1753.38257 3179.50458 3633.91011 3071.90062 3954.71062 3082.40074 3937.5399 3058.04784 3938.01626 
3938.07097 3944.92252 3955.68885 3057.63407 3057.41834 3057.20261 3056.84285 3056.4831 3953.96985 
3089.2582 3056.12335 3055.89365 3044.79113 3406.78793 3100.41741 3044.32154 3023.41974 3027.16392 
3307.87809 3008.1786 3007.9789 3007.47539 3007.2757 2959.48296 3007.10529 3368.04042 3386.26542 
2838.95233 3260.55701 3219.99177 3219.57121 1711.18113 1833.14337 1736.86094 3179.8453 3633.91011 
3075.65151 3082.6453 3937.76234 3937.87831 3058.3199 3058.24273 3057.0339 3945.30933 3955.78302 
3953.96985 3406.91959 3101.3835 3055.95859 3025.08104 3025.83587 3023.58544 3023.63326 3024.09561 
3020.25788 3009.12275 3008.95234 3008.78193 3008.61153 3308.40945 3008.44112 2989.37355 3368.13056 
3386.26542 3386.26542 3386.26542 2839.04701 2845.64621 2834.33576 2834.37374 2834.41172 2834.50194 
2838.86257 2828.80963 2833.17027 3262.42934 3218.76455 3218.34398 3217.92341 1712.62483 1834.76033 
1736.38198 3180.24459 3633.91011 3633.91011 3633.91011 3083.92584 3079.4024 3938.03277 3059.24694 
3048.87952 3938.30474 3060.22988 3058.83317 3058.61744 3946.09564 3955.95195 3953.96985 3102.77967 
3406.98775 3055.62551 3027.28365 3023.85848 3020.08072 3019.98835 3021.02729 3309.1609 2990.0327 
3368.34467 3368.6819 3386.26542 2866.14809 3386.35958 3386.35958 2827.88031 2827.91829 2827.95627 
2827.99424 2828.03222 2828.12244 3264.8907 3217.11675 1714.06853 1836.24468 1735.94231 3180.38802 
3633.91011 3083.12047 3082.25565 3084.02242 3048.6997 3938.15027 3062.25026 3061.73778 3061.52205 
3946.88196 3956.12087 3954.07131 3103.19525 3407.06762 3054.37477 3027.31557 3024.55314 3019.74197 
3309.34938 2991.30148 2990.79228 2990.04961 3369.32872 3386.26542 3386.26542 2866.74243 3386.35958 
3386.35958 3265.5105 3177.10667 3216.05631 3196.98482 3177.91333 2217.04481 1715.26485 1837.72903 
1735.57797 3180.5561 1733.85619 1733.77848 3633.91011 3633.91011 3084.98363 3084.71067 3083.43939 
3082.8853 3938.15027 3938.15027 3072.09247 3066.15377 3048.56292 3045.32891 3069.12312 3956.376 
3956.2898 3104.35217 3407.19928 3053.83049 3027.35754 3025.3672 3019.4956 3033.59536 3009.72836 
3017.9075 3309.70361 3009.38241 3009.03646 2992.33223 3000.51137 3008.69051 2991.65416 2991.98628 
2991.61639 2991.58713 2991.64032 2991.00594 2990.06652 3379.67782 3385.0735 3386.26542 2867.19454 
2867.25604 2867.15814 2867.06024 2866.96234 3386.35958 3386.35958 3386.35958 3169.81076 3265.77141 
3174.81901 3176.04624 3175.62567 2217.15772 1769.51415 1839.21338 1735.13829 3180.77707 1733.9661 
3969.08697 3633.91011 3087.79713 3087.14871 3086.87575 3086.22733 3082.8419 3044.94123 3075.99598 
3956.51187 3956.48558 3105.87306 3407.43245 3027.39952 3053.28621 3052.03548 3026.34961 3018.91032 
3018.60518 3018.0199 3017.71476 3034.30807 3034.01285 3310.04168 3310.00151 2991.82527 2991.95542 
2991.02777 3385.92381 2990.08342 3386.26542 3386.26542 2885.48134 3386.35958 3386.35958 3167.90757 
3167.48701 3168.71423 3169.52089 3169.96189 3169.81076 3170.76855 3169.81076 3169.81076 3171.57521 
3172.26356 3173.07022 3266.58619 3173.75857 2217.5432 2217.4303 2217.31739 1840.83034 1734.82739 
1734.08582 3180.94515 3969.08697 3633.91011 3179.25119 3147.91019 3082.69852 3076.68511 3076.7127 
3044.55354 3041.31954 3077.1564 3956.58915 3956.60604 3107.02998 3407.70267 3027.42676 3050.78475 
3049.53402 3033.78245 3048.28328 3033.7768 3033.75359 3047.03255 3033.7765 3033.74245 3045.78182 
3035.34836 3035.11828 3034.8882 3034.18272 3033.9423 3034.08737 3034.03765 3016.94536 3016.36008 
3016.1137 3310.23017 3310.00151 3310.00151 3015.86733 3015.64266 3015.27859 3015.08877 2991.04959 
3386.10652 2990.09628 3386.26542 3386.26542 3386.26542 3386.26542 3386.26542 3386.26542 3386.26542 
3386.26542 3386.26542 3386.26542 3386.26542 2910.24245 3386.35958 3386.35958 3386.35958 3165.61991 
3166.42657 3268.78166 3268.45852 3269.40145 2217.70288 1985.47071 1733.96862 1734.38771 1734.20554 
3181.16611 3969.08697 3182.44627 3181.60374 3182.40471 3181.17054 3180.88615 3633.91011 3082.58946 
3082.4343 3078.91983 3078.55124 3078.39608 3078.24092 3078.08576 3090.05206 3041.18275 3956.7326 
3108.55086 3407.89697 3027.46873 3027.48538 3033.79093 3033.79244 3033.78986 3033.79701 3034.03753 