# vtk DataFile Version 5.1
vtk output
ASCII
DATASET POLYDATA
POINTS 9317 float
-103.155 -95.4092 502.6 -103.155 -95.4092 503.1 -103.155 -95.4092 503.6 
-102.337 -94.5908 504.1 -102.337 -93.7725 504.6 -102.337 -93.7725 505.1 
-101.519 -92.9541 505.6 -101.519 -92.9541 506.1 -101.519 -92.1357 506.6 
-101.519 -92.1357 507.1 -101.519 -91.3174 508.1 -100.7 -92.1357 507.6 
-100.7 -91.3174 508.6 -100.7 -90.499 509.1 -99.8818 -92.9541 512.6 
-99.8818 -92.9541 513.1 -99.8818 -92.1357 512.1 -99.8818 -91.3174 510.6 
-99.8818 -91.3174 511.6 -99.8818 -90.499 509.6 -99.8818 -90.499 510.1 
-99.8818 -90.499 511.6 -99.8818 -89.6807 510.1 -99.0635 -92.1357 511.1 
-99.0635 -89.6807 511.1 -99.0635 -88.8623 510.6 -99.0635 -88.0439 511.1 
-98.2451 -87.2256 510.6 -98.2451 -87.2256 511.6 -98.2451 -86.4072 504.1 
-98.2451 -86.4072 504.6 -98.2451 -86.4072 505.1 -98.2451 -86.4072 512.1 
-98.2451 -86.4072 512.6 -98.2451 -85.5889 506.1 -97.4268 -86.4072 505.6 
-97.4268 -86.4072 510.1 -97.4268 -86.4072 513.1 -97.4268 -86.4072 513.6 
-97.4268 -85.5889 506.6 -97.4268 -85.5889 507.1 -96.6084 -86.4072 514.1 
-96.6084 -85.5889 507.6 -96.6084 -85.5889 509.6 -95.79 -86.4072 514.6 
-95.79 -85.5889 508.1 -95.79 -85.5889 508.6 -95.79 -85.5889 509.1 
-94.9717 -86.4072 515.1 -94.9717 -84.7705 509.6 -94.1533 -86.4072 515.6 
-94.1533 -83.9521 510.1 -93.335 -85.5889 516.1 -93.335 -83.1338 510.6 
-93.335 -83.1338 511.1 -92.5166 -85.5889 516.1 -92.5166 -82.3154 511.6 
-91.6982 -84.7705 516.1 -91.6982 -82.3154 512.1 -91.6982 -61.8564 539.1 
-91.6982 -61.8564 539.6 -91.6982 -61.8564 540.1 -91.6982 -61.0381 537.1 
-90.8799 -92.9541 535.1 -90.8799 -92.9541 535.6 -90.8799 -83.9521 516.1 
-90.8799 -82.3154 512.1 -90.8799 -61.0381 537.6 -90.8799 -61.0381 538.1 
-90.8799 -61.0381 538.6 -90.8799 -60.2197 536.6 -90.8799 -59.4014 535.6 
-90.8799 -59.4014 536.1 -90.0615 -92.1357 536.1 -90.0615 -85.5889 564.1 
-90.0615 -83.9521 516.1 -90.0615 -82.3154 512.6 -90.0615 -81.4971 562.6 
-90.0615 -79.042 561.1 -90.0615 -60.2197 538.6 -89.2432 -92.1357 536.1 
-89.2432 -85.5889 564.1 -89.2432 -83.1338 515.1 -89.2432 -83.1338 515.6 
-89.2432 -82.3154 513.1 -89.2432 -81.4971 562.6 -89.2432 -79.042 561.1 
-89.2432 -73.3135 557.1 -89.2432 -73.3135 557.6 -89.2432 -72.4951 556.6 
-89.2432 -60.2197 538.6 -88.4248 -116.687 527.1 -88.4248 -116.687 527.6 
-88.4248 -115.868 528.1 -88.4248 -115.868 528.6 -88.4248 -115.868 529.1 
-88.4248 -115.868 529.6 -88.4248 -115.05 530.1 -88.4248 -92.1357 536.6 
-88.4248 -86.4072 565.6 -88.4248 -85.5889 564.6 -88.4248 -84.7705 564.1 
-88.4248 -83.9521 564.1 -88.4248 -83.1338 564.1 -88.4248 -82.3154 513.6 
-88.4248 -82.3154 514.6 -88.4248 -82.3154 563.6 -88.4248 -81.4971 563.1 
-88.4248 -80.6787 562.6 -88.4248 -79.8604 562.6 -88.4248 -79.042 561.6 
-88.4248 -79.042 562.1 -88.4248 -78.2236 561.1 -88.4248 -77.4053 560.6 
-88.4248 -76.5869 560.1 -88.4248 -75.7686 559.6 -88.4248 -74.9502 559.6 
-88.4248 -73.3135 558.1 -88.4248 -59.4014 539.1 -87.6064 -115.05 530.6 
-87.6064 -115.05 531.1 -87.6064 -115.05 531.6 -87.6064 -114.231 532.1 
-87.6064 -105.229 516.6 -87.6064 -105.229 517.1 -87.6064 -99.501 568.6 
-87.6064 -91.3174 537.1 -87.6064 -85.5889 565.1 -87.6064 -82.3154 514.1 
-87.6064 -81.4971 564.1 -87.6064 -78.2236 562.6 -87.6064 -76.5869 561.1 
-87.6064 -74.1318 559.1 -87.6064 -73.3135 558.6 -87.6064 -72.4951 558.1 
-87.6064 -59.4014 539.6 -87.6064 -58.583 540.6 -86.7881 -113.413 532.6 
-86.7881 -113.413 533.1 -86.7881 -112.595 533.6 -86.7881 -112.595 534.1 
-86.7881 -111.776 535.1 -86.7881 -111.776 535.6 -86.7881 -111.776 536.1 
-86.7881 -111.776 541.6 -86.7881 -111.776 542.1 -86.7881 -111.776 542.6 
-86.7881 -111.776 543.1 -86.7881 -111.776 543.6 -86.7881 -110.958 536.6 
-86.7881 -110.958 540.6 -86.7881 -110.958 541.1 -86.7881 -110.14 537.1 
-86.7881 -110.14 539.6 -86.7881 -110.14 540.1 -86.7881 -109.321 537.6 
-86.7881 -109.321 539.1 -86.7881 -108.503 538.1 -86.7881 -108.503 538.6 
-86.7881 -107.685 538.6 -86.7881 -106.866 538.6 -86.7881 -104.411 517.6 
-86.7881 -100.319 570.1 -86.7881 -99.501 570.1 -86.7881 -98.6826 569.1 
-86.7881 -98.6826 569.6 -86.7881 -97.8643 570.1 -86.7881 -91.3174 477.6 
-86.7881 -91.3174 537.6 -86.7881 -90.499 477.6 -86.7881 -89.6807 477.6 
-86.7881 -85.5889 566.1 -86.7881 -85.5889 566.6 -86.7881 -84.7705 565.6 
-86.7881 -83.9521 565.6 -86.7881 -83.1338 565.1 -86.7881 -82.3154 564.6 
-86.7881 -81.4971 514.6 -86.7881 -80.6787 564.1 -86.7881 -77.4053 562.6 
-86.7881 -76.5869 561.6 -86.7881 -75.7686 561.1 -86.7881 -74.9502 561.1 
-86.7881 -74.1318 560.1 -86.7881 -73.3135 559.6 -86.7881 -71.6768 558.1 
-86.7881 -70.8584 558.1 -86.7881 -58.583 540.1 -86.7881 -58.583 541.1 
-86.7881 -58.583 545.1 -86.7881 -57.7646 541.6 -86.7881 -57.7646 542.1 
-86.7881 -57.7646 542.6 -86.7881 -57.7646 543.1 -86.7881 -57.7646 543.6 
-86.7881 -57.7646 544.1 -85.9697 -111.776 534.6 -85.9697 -106.048 538.6 
-85.9697 -105.229 539.1 -85.9697 -104.411 517.6 -85.9697 -104.411 539.6 
-85.9697 -103.593 539.6 -85.9697 -101.138 570.1 -85.9697 -97.0459 570.1 
-85.9697 -92.9541 477.6 -85.9697 -92.1357 477.6 -85.9697 -90.499 538.1 
-85.9697 -88.8623 478.1 -85.9697 -88.0439 478.6 -85.9697 -87.2256 479.1 
-85.9697 -86.4072 479.6 -85.9697 -85.5889 567.1 -85.9697 -82.3154 565.6 
-85.9697 -81.4971 515.1 -85.9697 -79.8604 564.1 -85.9697 -76.5869 562.1 
-85.9697 -74.1318 561.1 -85.9697 -73.3135 560.6 -85.9697 -64.3115 552.1 
-85.9697 -64.3115 553.1 -85.9697 -63.4932 551.1 -85.9697 -63.4932 551.6 
-85.9697 -62.6748 550.6 -85.9697 -59.4014 547.6 -85.9697 -59.4014 548.1 
-85.9697 -58.583 545.6 -85.9697 -58.583 546.1 -85.9697 -57.7646 544.6 
-85.1514 -103.593 518.1 -85.1514 -102.774 540.1 -85.1514 -101.956 540.1 
-85.1514 -101.956 570.6 -85.1514 -97.0459 570.6 -85.1514 -97.0459 571.1 
-85.1514 -97.0459 571.6 -85.1514 -94.5908 478.1 -85.1514 -93.7725 477.6 
-85.1514 -90.499 570.1 -85.1514 -89.6807 538.1 -85.1514 -86.4072 568.6 
-85.1514 -85.5889 480.1 -85.1514 -85.5889 567.6 -85.1514 -85.5889 568.1 
-85.1514 -84.7705 480.6 -85.1514 -82.3154 566.1 -85.1514 -81.4971 515.6 
-85.1514 -79.8604 564.6 -85.1514 -75.7686 562.6 -85.1514 -74.9502 561.6 
-85.1514 -72.4951 561.1 -85.1514 -65.1299 552.6 -85.1514 -65.1299 553.6 
-85.1514 -61.8564 550.1 -85.1514 -61.0381 550.1 -85.1514 -59.4014 548.6 
-85.1514 -58.583 546.6 -85.1514 -58.583 547.1 -84.333 -102.774 518.6 
-84.333 -102.774 571.1 -84.333 -102.774 571.6 -84.333 -101.138 540.1 
-84.333 -97.8643 572.1 -84.333 -97.8643 572.6 -84.333 -97.8643 573.1 
-84.333 -96.2275 571.6 -84.333 -95.4092 478.6 -84.333 -95.4092 571.6 
-84.333 -94.5908 571.6 -84.333 -93.7725 571.6 -84.333 -92.9541 571.6 
-84.333 -92.1357 571.1 -84.333 -91.3174 570.6 -84.333 -89.6807 538.6 
-84.333 -89.6807 570.1 -84.333 -88.8623 570.1 -84.333 -88.0439 569.6 
-84.333 -87.2256 569.1 -84.333 -84.7705 481.1 -84.333 -84.7705 568.6 
-84.333 -83.9521 481.6 -84.333 -81.4971 566.6 -84.333 -80.6787 515.6 
-84.333 -79.042 565.1 -84.333 -76.5869 564.1 -84.333 -75.7686 563.1 
-84.333 -75.7686 563.6 -84.333 -74.9502 562.6 -84.333 -74.1318 562.1 
-84.333 -73.3135 516.1 -84.333 -73.3135 561.6 -84.333 -71.6768 561.1 
-84.333 -70.8584 561.1 -84.333 -65.9482 554.1 -84.333 -60.2197 549.6 
-84.333 -60.2197 550.6 -84.333 -59.4014 549.1 -83.5146 -109.321 571.1 
-83.5146 -108.503 571.6 -83.5146 -107.685 572.1 -83.5146 -106.866 572.6 
-83.5146 -106.048 572.6 -83.5146 -105.229 572.6 -83.5146 -104.411 572.6 
-83.5146 -103.593 572.1 -83.5146 -102.774 519.1 -83.5146 -100.319 540.6 
-83.5146 -99.501 541.1 -83.5146 -95.4092 479.1 -83.5146 -95.4092 479.6 
-83.5146 -92.1357 571.6 -83.5146 -89.6807 538.6 -83.5146 -88.0439 570.1 
-83.5146 -83.9521 482.1 -83.5146 -83.9521 568.1 -83.5146 -83.1338 482.6 
-83.5146 -82.3154 567.1 -83.5146 -80.6787 515.6 -83.5146 -79.8604 541.1 
-83.5146 -79.042 565.1 -83.5146 -78.2236 564.6 -83.5146 -77.4053 564.1 
-83.5146 -73.3135 515.6 -83.5146 -70.04 549.1 -83.5146 -65.9482 554.6 
-83.5146 -65.9482 555.1 -83.5146 -60.2197 551.1 -83.5146 -58.583 548.6 
-83.5146 -49.5811 479.1 -83.5146 -49.5811 479.6 -82.6963 -106.866 574.1 
-82.6963 -106.048 573.6 -82.6963 -105.229 572.1 -82.6963 -105.229 573.1 
-82.6963 -104.411 573.1 -82.6963 -103.593 573.6 -82.6963 -101.956 519.1 
-82.6963 -98.6826 541.1 -82.6963 -97.0459 481.6 -82.6963 -97.0459 482.1 
-82.6963 -96.2275 480.1 -82.6963 -96.2275 480.6 -82.6963 -96.2275 481.1 
-82.6963 -95.4092 573.1 -82.6963 -94.5908 573.1 -82.6963 -92.9541 573.1 
-82.6963 -92.1357 572.1 -82.6963 -92.1357 572.6 -82.6963 -91.3174 571.6 
-82.6963 -90.499 571.6 -82.6963 -89.6807 571.6 -82.6963 -88.8623 539.1 
-82.6963 -88.0439 570.6 -82.6963 -88.0439 571.1 -82.6963 -83.1338 483.1 
-82.6963 -83.1338 567.6 -82.6963 -81.4971 567.1 -82.6963 -79.8604 516.1 
-82.6963 -79.8604 541.6 -82.6963 -79.8604 542.1 -82.6963 -79.8604 566.1 
-82.6963 -79.8604 566.6 -82.6963 -79.042 565.6 -82.6963 -73.3135 515.6 
-82.6963 -69.2217 548.6 -82.6963 -65.9482 555.6 -82.6963 -60.2197 551.6 
-82.6963 -57.7646 548.1 -82.6963 -49.5811 480.1 -82.6963 -49.5811 480.6 
-81.8779 -107.685 574.1 -81.8779 -106.048 489.1 -81.8779 -105.229 488.6 
-81.8779 -105.229 571.6 -81.8779 -104.411 487.6 -81.8779 -104.411 488.1 
-81.8779 -103.593 487.1 -81.8779 -102.774 486.6 -81.8779 -102.774 574.1 
-81.8779 -101.138 519.6 -81.8779 -98.6826 483.1 -81.8779 -98.6826 483.6 
-81.8779 -97.8643 482.6 -81.8779 -97.8643 541.1 -81.8779 -93.7725 573.1 
-81.8779 -92.1357 573.1 -81.8779 -88.8623 571.6 -81.8779 -88.0439 539.6 
-81.8779 -87.2256 571.1 -81.8779 -84.7705 569.6 -81.8779 -83.9521 569.1 
-81.8779 -83.1338 568.6 -81.8779 -82.3154 483.6 -81.8779 -82.3154 568.1 
-81.8779 -80.6787 567.1 -81.8779 -79.8604 516.1 -81.8779 -79.042 542.6 
-81.8779 -73.3135 515.6 -81.8779 -69.2217 548.1 -81.8779 -66.7666 556.6 
-81.8779 -65.9482 556.1 -81.8779 -60.2197 552.1 -81.8779 -58.583 547.6 
-81.8779 -56.9463 548.1 -81.8779 -49.5811 481.1 -81.8779 -49.5811 481.6 
-81.0596 -108.503 574.6 -81.0596 -106.866 489.6 -81.0596 -104.411 571.1 
-81.0596 -102.774 574.6 -81.0596 -101.956 486.1 -81.0596 -101.138 485.1 
[...]
POINT_DATA 9317
FIELD FieldData 2
Radius 1 9317 double
0.64875 0.5 0.5 0.5 0.5 0.818359 0.5 0.818359 0.5 
0.818359 0.5 0.5 0.5 0.5 0.64875 0.64875 0.64875 0.64875 
0.64875 0.5 0.64875 0.64875 0.5 0.64875 0.5 0.818359 0.5 
0.5 0.818359 0.64875 0.64875 0.64875 0.5 0.5 0.64875 0.64875 
0.5 0.64875 0.64875 0.64875 0.5 0.64875 0.5 0.818359 0.5 
0.64875 0.5 0.959016 0.5 0.5 0.818359 0.5 0.5 0.5 
0.64875 0.818359 0.64875 0.5 0.5 0.64875 0.64875 0.64875 0.64875 
0.64875 0.64875 0.5 0.64875 0.64875 0.64875 0.64875 0.64875 0.64875 
0.64875 0.64875 0.64875 0.818359 0.64875 0.64875 0.64875 0.64875 0.64875 
0.64875 0.818359 0.818359 0.5 0.64875 0.64875 0.64875 0.64875 0.64875 
0.64875 0.64875 0.64875 0.64875 0.64875 0.64875 0.64875 0.64875 0.64875 
0.64875 0.64875 0.64875 0.64875 0.64875 0.818359 0.959016 0.64875 0.64875 
0.64875 0.64875 0.64875 0.64875 0.64875 0.64875 0.64875 0.64875 0.64875 
0.64875 0.64875 0.64875 0.64875 0.64875 0.64875 0.64875 0.64875 0.64875 
0.64875 0.64875 0.959016 0.64875 0.64875 0.64875 0.64875 0.64875 0.64875 
0.64875 0.64875 0.64875 0.5 0.5 0.818359 0.818359 0.959016 0.818359 
0.64875 0.64875 0.64875 0.64875 0.64875 0.959016 0.64875 0.64875 0.959016 
0.64875 0.64875 0.959016 0.5 0.818359 0.818359 0.818359 0.818359 0.64875 
0.64875 0.64875 0.64875 0.64875 0.64875 0.5 0.5 0.5 0.818359 
0.64875 0.64875 0.64875 0.64875 0.64875 0.64875 0.818359 0.64875 0.64875 
0.64875 0.64875 0.64875 0.64875 0.64875 0.64875 0.64875 0.64875 0.64875 
0.64875 0.64875 0.64875 0.64875 0.64875 0.64875 0.64875 0.5 0.818359 
0.818359 0.64875 0.818359 0.818359 0.64875 0.64875 0.5 0.5 0.5 
0.818359 0.818359 0.818359 0.5 0.64875 0.64875 0.818359 0.64875 0.64875 
0.64875 0.64875 0.64875 0.64875 0.5 0.64875 0.5 0.64875 0.64875 
0.64875 0.64875 0.64875 0.64875 0.818359 0.5 0.64875 0.64875 0.64875 
0.64875 0.5 0.5 0.64875 0.64875 0.64875 0.818359 0.64875 0.64875 
0.818359 0.64875 0.818359 0.64875 0.64875 0.64875 0.64875 0.64875 0.64875 
0.5 0.5 0.64875 0.64875 0.64875 0.64875 0.64875 0.64875 0.818359 
0.64875 0.64875 0.64875 0.64875 0.5 0.64875 0.64875 0.64875 0.64875 
0.64875 0.64875 0.5 0.64875 0.64875 0.64875 0.64875 0.959016 0.64875 
0.818359 0.64875 0.5 0.64875 0.64875 0.64875 0.64875 0.64875 0.64875 
0.5 0.64875 0.64875 0.64875 0.64875 0.64875 0.64875 0.5 0.64875 
0.64875 0.5 0.5 0.5 0.5 0.5 0.5 0.64875 0.818359 
0.5 0.818359 0.5 0.64875 0.5 0.64875 0.959016 0.64875 0.818359 
0.64875 0.818359 0.64875 0.64875 0.64875 0.64875 0.818359 0.64875 0.64875 
0.64875 0.64875 0.64875 0.64875 0.64875 0.64875 0.64875 0.5 0.64875 
0.64875 0.64875 0.64875 0.818359 0.818359 0.5 0.818359 0.818359 0.5 
0.64875 0.64875 0.64875 0.64875 0.64875 0.64875 0.64875 0.64875 0.818359 
0.64875 0.64875 0.959016 0.64875 0.64875 0.5 0.64875 0.64875 0.64875 
0.64875 0.64875 0.818359 0.64875 0.5 0.64875 0.64875 0.64875 0.64875 
0.64875 0.5 0.818359 0.64875 0.818359 0.5 0.5 0.5 0.64875 
0.5 0.5 0.5 0.5 0.818359 0.64875 0.64875 0.64875 0.64875 
0.64875 0.64875 0.64875 0.64875 0.5 0.64875 0.64875 0.818359 0.64875 
0.818359 0.5 0.818359 0.5 0.64875 0.64875 0.5 0.64875 0.64875 
0.64875 0.5 0.64875 0.64875 0.5 0.818359 0.5 0.818359 0.5 
0.5 0.5 0.818359 0.64875 0.64875 0.64875 0.64875 0.64875 0.64875 
0.64875 0.818359 0.64875 0.64875 0.64875 0.5 0.64875 0.64875 0.818359 
0.5 0.818359 0.5 0.5 0.5 0.5 0.64875 0.64875 0.64875 
0.5 0.5 0.64875 0.64875 0.64875 0.64875 0.64875 0.64875 0.64875 
0.5 0.64875 0.5 0.959016 0.64875 0.64875 0.64875 0.5 0.64875 
0.959016 0.818359 0.5 0.818359 0.818359 0.5 0.818359 0.64875 0.5 
0.64875 0.64875 0.64875 0.64875 0.64875 0.64875 0.64875 0.64875 0.64875 
0.64875 0.64875 0.64875 0.64875 0.64875 0.818359 0.64875 0.64875 0.5 
0.959016 0.64875 0.64875 0.64875 0.64875 0.64875 0.818359 0.64875 0.5 
0.64875 0.64875 0.64875 0.64875 0.64875 0.959016 0.818359 0.64875 0.818359 
0.818359 0.5 0.64875 0.5 0.5 0.64875 0.64875 0.64875 0.5 
0.818359 0.818359 0.64875 0.64875 0.64875 0.64875 0.64875 0.64875 0.64875 
0.5 0.5 0.5 0.5 0.64875 0.5 0.5 0.959016 0.64875 
0.64875 0.5 0.5 0.64875 0.64875 0.959016 0.818359 0.64875 0.818359 
0.5 0.64875 0.64875 0.64875 0.64875 0.64875 0.64875 0.64875 0.64875 
0.818359 0.5 0.5 0.818359 0.64875 0.5 0.64875 0.64875 0.64875 
0.64875 0.818359 0.64875 0.5 0.64875 0.64875 0.5 0.5 0.5 
0.64875 0.64875 0.64875 0.64875 0.64875 0.64875 0.5 0.959016 0.64875 
0.64875 0.5 0.818359 0.64875 0.64875 0.64875 0.64875 0.818359 0.818359 
0.818359 0.818359 0.818359 0.818359 0.818359 0.818359 0.818359 0.64875 0.818359 
0.818359 0.818359 0.818359 0.64875 0.818359 0.5 0.64875 0.64875 0.5 
0.818359 0.64875 0.5 0.5 0.64875 0.5 0.818359 0.818359 0.64875 
0.64875 0.64875 0.5 0.5 0.5 0.64875 0.64875 0.64875 0.5 
0.818359 0.818359 0.818359 0.818359 0.64875 0.64875 0.5 0.818359 0.64875 
0.64875 0.64875 0.64875 0.5 0.64875 0.818359 0.818359 0.818359 0.64875 
0.64875 0.5 0.818359 0.5 0.818359 0.818359 0.5 0.64875 0.64875 
0.5 0.5 0.5 0.818359 0.5 0.64875 0.5 0.5 0.64875 
0.64875 0.959016 0.5 0.64875 0.64875 0.64875 0.64875 0.64875 0.64875 
0.818359 0.64875 0.64875 0.64875 0.64875 0.64875 0.64875 0.64875 0.64875 
0.818359 0.64875 0.818359 0.64875 0.64875 0.64875 0.64875 0.818359 0.64875 
0.64875 0.818359 0.5 0.5 0.64875 0.5 0.64875 0.5 0.818359 
0.5 0.5 0.64875 0.64875 0.5 0.5 0.818359 0.818359 0.818359 
0.5 0.64875 0.64875 0.64875 0.64875 0.64875 0.64875 0.5 0.959016 
0.64875 0.5 0.5 0.5 0.64875 0.64875 0.64875 0.64875 0.818359 
0.64875 0.64875 0.64875 0.5 0.64875 0.64875 0.64875 0.64875 0.64875 
0.818359 0.64875 0.5 0.64875 0.64875 0.5 0.5 0.5 0.959016 
0.64875 0.5 0.5 0.5 0.64875 0.64875 0.64875 0.64875 0.5 
0.5 0.64875 0.5 0.64875 0.64875 0.64875 0.64875 0.64875 0.64875 
0.64875 0.64875 0.818359 0.64875 0.818359 0.64875 0.64875 0.818359 0.64875 
0.64875 0.64875 0.64875 0.64875 0.5 0.959016 0.64875 0.64875 0.64875 
0.64875 0.64875 0.64875 0.64875 0.818359 0.64875 0.64875 0.5 0.64875 
0.64875 0.64875 0.5 0.818359 0.64875 0.5 0.5 0.64875 0.959016 
0.5 0.5 0.64875 0.64875 0.64875 0.64875 0.64875 0.64875 0.64875 
0.64875 0.64875 0.64875 0.64875 0.5 0.64875 0.5 0.5 0.64875 
0.5 0.5 0.64875 0.5 0.64875 0.64875 0.64875 0.64875 0.818359 
0.64875 0.959016 0.5 0.64875 0.5 0.818359 0.818359 0.5 0.64875 
0.5 0.64875 0.5 0.959016 0.64875 0.64875 0.64875 0.64875 0.818359 
0.64875 0.64875 0.64875 0.64875 0.64875 0.64875 0.64875 0.64875 0.64875 
0.5 0.818359 0.818359 0.64875 0.959016 0.818359 0.64875 0.5 0.5 
0.5 0.5 0.64875 0.64875 0.64875 0.5 0.5 0.5 0.818359 
0.818359 0.5 0.818359 0.64875 0.5 0.818359 0.818359 0.818359 0.5 
0.5 0.5 0.5 0.5 0.5 0.5 0.5 0.5 0.64875 
0.5 0.64875 0.64875 0.64875 0.5 0.64875 0.64875 0.959016 0.5 
0.5 0.959016 0.818359 0.64875 0.64875 0.818359 0.5 0.64875 0.64875 
0.64875 0.818359 0.959016 0.64875 0.64875 0.64875 0.64875 0.64875 0.64875 
0.64875 0.818359 0.64875 0.64875 0.64875 0.64875 0.64875 0.64875 0.64875 
0.64875 0.64875 0.64875 0.5 0.5 0.5 0.64875 0.959016 0.818359 
0.5 0.5 0.959016 0.64875 0.64875 0.5 0.64875 0.64875 0.64875 
0.64875 0.64875 0.5 0.64875 0.818359 1.157335 0.64875 0.64875 0.959016 
0.64875 0.818359 0.818359 0.818359 0.818359 0.818359 0.5 0.64875 0.64875 
0.5 0.818359 0.818359 0.818359 0.5 0.64875 0.64875 0.64875 0.5 
0.64875 1 0.64875 0.64875 0.64875 0.64875 0.64875 0.64875 0.64875 
0.64875 0.64875 0.64875 0.64875 0.64875 0.64875 0.64875 0.818359 0.64875 
0.64875 0.64875 0.5 0.5 0.64875 0.64875 0.64875 0.959016 0.5 
0.818359 0.5 0.818359 0.959016 0.5 0.64875 0.5 0.5 0.5 
0.64875 0.5 0.818359 0.818359 0.818359 0.818359 0.818359 0.5 0.64875 
0.5 0.5 0.64875 0.5 0.818359 0.64875 0.818359 0.64875 0.5 
1.260724 1.292173 0.959016 0.5 0.64875 0.64875 0.64875 0.64875 0.64875 
0.5 0.64875 0.5 0.818359 0.5 0.64875 0.64875 0.5 0.64875 
0.64875 0.64875 0.64875 0.818359 0.5 0.818359 0.818359 0.818359 0.5 
0.5 0.5 0.5 0.64875 0.5 0.5 0.5 0.5 0.818359 
0.818359 0.818359 0.818359 0.5 0.64875 0.5 0.64875 0.818359 0.818359 
0.64875 0.64875 0.818359 0.64875 0.818359 0.818359 0.818359 0.5 0.64875 
0.64875 0.64875 0.64875 0.64875 0.818359 0.959016 0.64875 0.64875 0.64875 
0.64875 0.64875 0.959016 0.64875 0.64875 0.64875 0.818359 0.64875 0.64875 
0.5 0.818359 0.5 0.64875 0.64875 0.64875 0.818359 0.64875 0.818359 
0.5 0.64875 0.818359 0.5 0.64875 0.5 0.5 0.5 0.64875 
0.64875 0.5 0.818359 0.64875 0.818359 0.64875 0.5 0.5 0.818359 
0.959016 0.818359 0.64875 0.64875 0.5 0.5 0.64875 0.5 0.64875 
0.64875 0.64875 0.64875 0.5 0.64875 0.64875 0.818359 0.64875 0.5 
0.818359 0.5 0.64875 0.64875 0.64875 0.64875 0.64875 0.64875 0.64875 
0.5 0.64875 0.818359 0.64875 0.5 0.64875 0.64875 0.959016 0.64875 
0.64875 0.959016 0.64875 0.818359 0.64875 0.5 0.5 0.818359 0.64875 
0.64875 0.64875 0.64875 0.818359 0.818359 0.64875 0.5 0.64875 0.64875 
0.818359 0.64875 0.818359 0.5 0.64875 0.64875 0.5 0.64875 0.64875 
0.64875 0.64875 0.64875 0.64875 0.64875 0.64875 0.64875 0.5 0.818359 
0.64875 0.818359 0.959016 0.64875 0.64875 0.959016 0.64875 0.64875 0.64875 
0.64875 0.64875 0.959016 0.64875 0.64875 0.64875 0.64875 0.64875 0.64875 
0.64875 0.64875 0.64875 0.64875 0.64875 0.64875 0.64875 0.5 0.5 
0.64875 0.818359 0.64875 0.64875 0.64875 0.64875 0.818359 0.818359 0.64875 
0.5 0.959016 0.818359 0.818359 0.818359 0.5 0.64875 0.64875 0.5 
0.64875 0.64875 0.64875 0.64875 0.64875 0.64875 0.64875 0.64875 0.5 
0.5 0.818359 0.64875 0.64875 0.64875 0.818359 0.959016 0.64875 0.64875 
0.5 0.5 0.64875 0.64875 0.64875 0.959016 1.157335 0.5 0.64875 
0.818359 0.64875 0.64875 0.818359 0.64875 0.5 0.818359 0.5 0.64875 
0.64875 0.64875 0.64875 0.64875 0.64875 0.64875 0.64875 0.64875 0.64875 
0.64875 0.818359 0.818359 0.959016 0.64875 0.64875 0.64875 0.959016 0.64875 
0.5 0.64875 0.64875 0.959016 0.959016 1.260724 0.959016 0.64875 0.64875 
0.64875 0.5 0.64875 0.64875 0.5 0.64875 0.64875 0.818359 0.5 
0.64875 0.5 0.818359 0.64875 0.64875 0.64875 0.64875 0.64875 0.64875 
0.64875 0.64875 0.5 0.64875 0.64875 0.818359 0.5 0.818359 0.64875 
0.5 0.959016 0.64875 0.64875 0.64875 0.64875 1.260724 0.959016 0.5 
0.64875 0.64875 0.64875 0.5 0.64875 0.818359 0.64875 0.5 0.64875 
0.64875 0.64875 0.5 0.64875 0.5 0.64875 0.818359 0.64875 0.64875 
0.64875 0.64875 0.64875 0.5 0.64875 0.64875 0.959016 0.818359 0.5 
0.64875 0.64875 0.959016 0.64875 0.64875 0.64875 0.64875 1.260724 0.959016 
0.64875 0.64875 0.64875 0.64875 0.5 0.818359 0.64875 0.64875 0.818359 
0.64875 0.5 0.64875 0.64875 0.64875 0.818359 0.64875 0.64875 0.64875 
0.64875 0.64875 0.64875 0.5 0.5 0.818359 0.818359 0.5 0.64875 
0.64875 0.64875 0.959016 0.5 0.818359 0.64875 0.64875 1.292173 0.818359 
0.818359 0.64875 0.5 0.64875 0.818359 0.64875 0.5 0.64875 0.818359 
0.64875 0.64875 0.64875 0.818359 0.64875 0.64875 0.64875 0.64875 0.64875 
0.5 0.818359 0.959016 0.5 0.64875 0.64875 0.64875 0.818359 0.64875 
0.64875 0.5 1.260724 0.818359 0.818359 0.818359 0.818359 0.818359 0.64875 
0.64875 0.818359 0.5 0.64875 1 0.818359 0.64875 0.818359 0.5 
0.818359 0.64875 0.64875 0.64875 0.64875 0.5 0.64875 0.818359 0.64875 
0.64875 0.5 0.64875 0.64875 0.64875 0.64875 0.64875 0.5 0.5 
0.5 0.64875 0.64875 0.64875 0.959016 1.157335 0.5 0.5 0.959016 
0.64875 0.959016 0.5 0.959016 0.64875 0.5 0.818359 0.5 0.5 
0.818359 0.64875 0.64875 0.64875 0.64875 0.5 0.64875 0.64875 0.818359 
0.64875 0.5 0.5 0.64875 0.5 0.818359 0.818359 0.818359 0.5 
0.64875 0.5 0.64875 0.5 0.64875 0.64875 0.64875 0.64875 0.64875 
0.64875 0.818359 0.64875 0.5 0.5 0.818359 0.5 0.64875 0.818359 
0.64875 0.64875 0.5 0.818359 0.818359 0.5 0.959016 0.64875 0.818359 
1.260724 0.5 0.64875 0.5 0.959016 0.818359 0.5 0.818359 0.64875 
0.5 0.5 0.5 0.64875 0.64875 0.5 0.818359 0.818359 0.818359 
0.818359 0.818359 0.5 0.5 0.64875 0.64875 0.64875 0.64875 0.818359 
0.5 0.959016 0.5 0.818359 0.64875 0.64875 0.5 0.818359 0.818359 
0.5 0.959016 0.64875 0.818359 0.959016 0.5 0.64875 0.5 0.818359 
0.959016 0.64875 0.64875 0.64875 0.5 0.5 0.5 0.64875 0.64875 
0.5 0.818359 0.64875 0.64875 0.5 0.64875 0.64875 0.64875 0.64875 
0.64875 0.818359 0.64875 0.64875 0.5 0.5 0.818359 0.818359 0.818359 
0.959016 0.64875 0.64875 0.5 0.5 0.64875 0.5 0.5 0.818359 
0.959016 0.5 1 0.818359 0.64875 0.5 0.818359 0.64875 0.64875 
0.5 0.5 0.64875 0.64875 0.64875 0.5 0.64875 0.64875 0.64875 
0.64875 0.64875 0.64875 0.64875 0.64875 0.64875 0.5 0.5 0.64875 
0.64875 0.64875 0.64875 0.64875 0.64875 0.5 0.5 0.64875 0.818359 
0.64875 0.64875 0.64875 0.64875 0.5 0.64875 0.64875 0.818359 0.64875 
0.64875 0.64875 0.5 0.818359 0.818359 0.5 0.818359 0.5 0.5 
0.959016 0.818359 0.818359 0.818359 0.64875 0.5 0.5 0.5 0.5 
0.818359 0.5 0.818359 0.64875 0.64875 0.959016 0.5 0.64875 0.64875 
0.64875 0.5 0.64875 0.818359 0.64875 0.5 0.5 0.5 0.64875 
0.64875 0.64875 0.64875 0.64875 0.64875 0.64875 0.64875 0.64875 0.64875 
0.64875 0.64875 0.5 0.64875 0.64875 0.64875 0.64875 0.64875 0.64875 
0.64875 0.818359 0.64875 0.64875 0.5 0.64875 0.5 0.959016 0.5 
0.5 0.64875 0.5 0.959016 1.260724 0.5 0.818359 0.64875 0.5 
0.5 0.64875 0.5 0.64875 0.64875 0.5 0.64875 0.64875 0.5 
0.64875 0.64875 0.64875 0.64875 0.64875 0.64875 0.64875 0.5 0.818359 
0.818359 0.818359 0.64875 0.64875 0.818359 0.5 0.818359 0.5 0.64875 
0.818359 0.64875 0.818359 0.818359 0.5 0.818359 0.818359 0.5 0.64875 
0.64875 0.64875 0.64875 0.64875 0.64875 0.5 0.5 0.5 0.64875 
0.64875 0.818359 0.5 0.5 0.64875 0.5 0.64875 0.64875 0.64875 
0.818359 0.64875 0.64875 0.5 0.64875 0.5 0.818359 0.64875 0.818359 
0.818359 0.5 0.818359 0.818359 0.818359 0.818359 0.64875 0.64875 0.959016 
0.818359 0.959016 0.64875 0.64875 0.64875 0.64875 0.64875 0.64875 0.5 
0.64875 0.64875 0.5 0.5 0.818359 0.818359 0.64875 0.64875 0.959016 
0.64875 0.818359 0.64875 0.64875 0.64875 0.5 0.5 0.64875 0.5 
0.5 0.64875 0.818359 0.64875 0.5 0.64875 0.64875 0.64875 0.5 
0.64875 0.5 0.64875 0.64875 0.64875 0.64875 0.64875 0.64875 0.64875 
0.64875 0.5 0.5 0.64875 0.5 0.5 0.5 0.959016 0.64875 
0.5 0.64875 0.818359 0.64875 0.64875 0.64875 0.64875 0.64875 0.64875 
0.64875 0.64875 0.64875 0.818359 0.64875 0.64875 0.64875 0.64875 0.64875 
0.64875 0.64875 0.5 0.5 0.818359 0.64875 0.64875 0.5 0.818359 
0.818359 0.5 0.818359 0.818359 0.5 0.818359 0.5 0.5 0.818359 
0.818359 0.64875 0.959016 0.5 0.818359 0.5 0.64875 0.5 0.5 
0.5 0.64875 0.64875 0.818359 0.5 0.64875 0.64875 0.5 0.64875 
0.818359 0.64875 0.64875 0.64875 0.64875 0.64875 0.64875 0.64875 0.5 
0.5 0.5 0.64875 0.64875 0.64875 0.64875 0.5 0.818359 0.5 
0.64875 0.959016 1 0.5 0.5 0.64875 0.64875 0.64875 0.64875 
0.5 0.64875 0.64875 0.64875 0.5 0.64875 0.64875 0.5 0.818359 
0.5 0.5 0.5 0.818359 0.5 0.5 0.5 0.818359 0.818359 
0.818359 0.818359 0.818359 0.818359 0.818359 0.818359 0.818359 0.818359 0.818359 
0.818359 0.5 0.64875 0.959016 0.959016 0.5 0.64875 0.64875 0.5 
0.64875 0.818359 0.64875 0.64875 0.5 0.64875 0.64875 0.5 0.64875 
0.64875 0.64875 0.64875 0.64875 0.64875 0.64875 0.64875 0.64875 0.64875 
0.64875 0.5 0.64875 0.5 0.64875 0.64875 0.959016 0.64875 0.64875 
0.64875 0.64875 0.64875 0.5 0.5 0.5 0.818359 0.64875 0.64875 
0.5 0.64875 0.64875 0.64875 0.64875 0.64875 0.818359 0.5 0.818359 
0.64875 0.64875 0.5 0.818359 0.818359 0.5 0.5 0.64875 0.818359 
0.818359 0.818359 0.5 0.64875 0.959016 0.5 0.5 0.818359 0.64875 
0.64875 0.64875 0.64875 0.64875 0.959016 0.959016 0.818359 0.818359 0.64875 
0.5 0.64875 0.64875 0.64875 0.5 0.5 0.64875 0.64875 0.64875 
0.64875 0.64875 0.64875 0.64875 0.5 0.64875 0.64875 0.64875 0.64875 
0.64875 0.64875 0.64875 0.64875 0.64875 0.818359 0.5 0.64875 0.64875 
0.64875 0.64875 0.959016 0.64875 0.64875 0.64875 0.64875 0.5 0.818359 
0.64875 0.5 0.5 0.64875 0.64875 0.64875 0.64875 0.5 0.5 
0.5 0.5 0.818359 0.818359 0.818359 0.959016 0.5 0.818359 0.64875 
0.64875 0.64875 0.64875 0.64875 0.5 0.64875 0.64875 0.64875 0.64875 
0.64875 0.64875 0.64875 0.64875 0.64875 0.818359 0.5 0.64875 0.818359 
0.5 0.818359 0.5 0.64875 0.64875 0.64875 0.64875 0.64875 0.64875 
0.64875 0.64875 0.64875 0.64875 0.64875 0.64875 0.64875 0.64875 0.64875 
0.5 0.64875 0.64875 0.64875 0.5 0.64875 0.64875 0.64875 0.5 
0.5 0.818359 0.64875 0.5 0.64875 0.64875 0.64875 0.64875 0.5 
0.5 0.818359 0.818359 0.5 0.5 0.818359 0.818359 0.5 0.64875 
0.64875 0.64875 0.64875 0.64875 0.64875 0.64875 0.64875 0.64875 0.64875 
0.64875 0.64875 0.64875 0.64875 0.64875 0.64875 0.64875 0.64875 0.64875 
0.64875 0.64875 0.64875 0.818359 0.5 0.818359 0.5 0.64875 0.64875 
0.64875 0.64875 0.64875 0.64875 0.5 0.64875 0.64875 0.64875 0.64875 
0.959016 0.818359 0.5 0.64875 0.64875 0.64875 0.64875 0.64875 0.64875 
0.64875 0.5 0.818359 0.64875 0.64875 0.5 0.64875 0.64875 0.64875 
0.64875 0.64875 0.64875 0.64875 0.5 0.64875 0.64875 0.818359 0.5 
0.818359 0.818359 0.64875 0.5 0.5 0.64875 0.64875 0.64875 0.64875 
0.64875 0.64875 0.64875 0.64875 0.64875 0.64875 0.64875 0.64875 0.64875 
0.64875 0.64875 0.64875 0.64875 0.818359 0.5 0.818359 0.5 0.64875 
0.64875 0.64875 0.64875 0.64875 0.5 0.5 0.64875 0.64875 0.64875 
0.64875 0.64875 0.959016 0.5 0.64875 0.64875 0.64875 0.64875 0.64875 
0.64875 0.64875 0.818359 0.64875 0.64875 0.64875 0.818359 0.64875 0.64875 
0.64875 0.64875 0.64875 0.5 0.64875 0.64875 0.64875 0.64875 0.64875 
0.64875 0.64875 0.64875 0.64875 0.64875 0.818359 0.5 0.5 0.64875 
0.64875 0.64875 0.5 0.818359 0.818359 0.818359 0.5 0.64875 0.64875 
0.5 0.64875 0.64875 0.5 0.64875 0.64875 0.64875 0.64875 0.64875 
0.64875 0.64875 0.64875 0.64875 0.64875 0.64875 0.64875 0.64875 0.64875 
0.64875 0.64875 0.64875 0.64875 0.64875 0.64875 0.64875 0.64875 0.64875 
0.64875 0.64875 0.64875 0.818359 0.818359 0.64875 0.64875 0.64875 0.64875 
0.64875 0.5 0.5 0.64875 0.64875 0.5 0.818359 0.5 0.64875 
0.64875 0.64875 0.64875 0.64875 0.5 0.64875 0.64875 0.5 0.64875 
0.5 0.818359 0.5 0.64875 0.959016 0.64875 0.64875 0.64875 0.64875 
0.64875 0.64875 0.64875 0.64875 0.64875 0.64875 0.959016 0.64875 0.64875 
0.64875 0.64875 0.5 0.64875 0.818359 0.64875 0.64875 0.64875 0.64875 
0.5 0.5 0.5 0.818359 0.5 0.64875 0.64875 0.64875 0.5 
0.64875 0.64875 0.64875 0.64875 0.64875 0.64875 0.5 0.818359 0.5 
0.64875 0.64875 0.5 0.818359 0.818359 0.818359 0.818359 0.64875 0.64875 
0.64875 0.64875 0.64875 0.5 0.64875 0.64875 0.5 0.64875 0.64875 
0.5 0.64875 0.64875 0.64875 0.64875 0.64875 0.5 0.818359 0.5 
0.64875 0.64875 0.64875 0.64875 0.64875 0.818359 0.5 0.5 0.818359 
0.818359 0.5 0.64875 0.64875 0.64875 0.64875 0.64875 0.64875 0.5 
0.64875 0.64875 0.64875 0.5 0.5 0.5 0.64875 0.5 0.818359 
0.64875 0.5 0.64875 0.64875 0.64875 0.64875 0.64875 0.64875 0.64875 
0.5 0.64875 0.64875 0.64875 0.64875 0.64875 0.64875 0.64875 0.64875 
0.64875 0.64875 0.64875 0.64875 0.64875 0.818359 0.818359 0.64875 0.64875 
0.64875 0.959016 0.64875 0.64875 0.5 0.64875 0.64875 0.818359 0.64875 
0.64875 0.64875 0.64875 0.64875 0.64875 0.64875 0.64875 0.64875 0.64875 
0.5 0.818359 0.818359 0.818359 0.818359 0.818359 0.818359 0.5 0.64875 
0.64875 0.5 0.5 0.64875 0.64875 0.64875 0.64875 0.64875 0.64875 
0.64875 0.64875 0.64875 0.64875 0.64875 0.64875 0.64875 0.5 0.64875 
0.64875 0.64875 0.64875 0.64875 0.64875 0.818359 0.818359 0.64875 0.5 
0.64875 0.5 0.5 0.64875 0.64875 0.5 0.64875 0.64875 0.5 
0.64875 0.64875 0.64875 0.64875 0.64875 0.64875 0.64875 0.818359 0.818359 
0.5 0.64875 0.64875 0.64875 0.64875 0.959016 0.818359 0.818359 0.818359 
0.5 0.64875 1.260724 0.5 0.64875 0.64875 0.64875 0.64875 0.64875 
0.64875 0.64875 0.64875 0.64875 0.64875 0.64875 0.64875 0.64875 0.64875 
0.64875 0.64875 0.64875 0.64875 0.64875 0.64875 0.64875 0.64875 0.64875 
0.64875 0.64875 0.5 0.5 0.64875 0.64875 0.64875 0.64875 0.64875 
0.64875 0.64875 0.5 0.64875 0.64875 0.5 0.64875 0.818359 0.5 
0.64875 0.64875 0.64875 0.64875 0.5 0.5 0.959016 0.64875 0.64875 
0.64875 0.64875 0.64875 0.64875 0.64875 0.64875 0.64875 0.5 0.64875 
0.64875 0.818359 0.64875 0.818359 0.959016 0.5 0.5 0.64875 1.292173 
0.64875 0.5 0.818359 0.64875 0.64875 0.64875 0.64875 0.64875 0.64875 
0.64875 0.64875 0.64875 0.64875 0.64875 0.64875 0.64875 0.5 0.818359 
0.818359 0.5 0.5 0.64875 0.64875 0.64875 0.64875 0.64875 0.64875 
0.64875 0.64875 0.64875 0.64875 0.64875 0.64875 0.64875 0.818359 0.64875 
0.64875 0.64875 0.64875 0.64875 0.818359 0.5 0.5 0.64875 0.64875 